<event>
 4    1  0.4903958E-004  0.1000000E+04  0.7546771E-02  0.8684367E-01
         11   -1    0    0    0    0  0.00000000000E+00  0.00000000000E+00  0.50000000000E+03  0.50000000000E+03  0.00000000000E+00 0. -1.
        -11   -1    0    0    0    0 -0.00000000000E+00 -0.00000000000E+00 -0.50000000000E+03  0.50000000000E+03  0.00000000000E+00 0.  1.
          5    1    1    2  501    0  0.14902980928E+03  0.39008498500E+03  0.27495768843E+03  0.50000000000E+03  0.47000000000E+01 0. -1.
         -5    1    1    2    0  501 -0.14902980928E+03 -0.39008498500E+03 -0.27495768843E+03  0.50000000000E+03  0.47000000000E+01 0.  1.
</event>
<event>
 4    1  0.4903958E-004  0.1000000E+04  0.7546771E-02  0.8684367E-01
         11   -1    0    0    0    0  0.00000000000E+00  0.00000000000E+00  0.50000000000E+03  0.50000000000E+03  0.00000000000E+00 0.  1.
        -11   -1    0    0    0    0 -0.00000000000E+00 -0.00000000000E+00 -0.50000000000E+03  0.50000000000E+03  0.00000000000E+00 0. -1.
          5    1    1    2  501    0  0.31937478419E+03 -0.27229508697E+03 -0.27172236352E+03  0.50000000000E+03  0.47000000000E+01 0. -1.
         -5    1    1    2    0  501 -0.31937478419E+03  0.27229508697E+03  0.27172236352E+03  0.50000000000E+03  0.47000000000E+01 0.  1.
</event>
<event>
 4    1  0.4903958E-004  0.1000000E+04  0.7546771E-02  0.8684367E-01
         11   -1    0    0    0    0  0.00000000000E+00  0.00000000000E+00  0.50000000000E+03  0.50000000000E+03  0.00000000000E+00 0. -1.
        -11   -1    0    0    0    0 -0.00000000000E+00 -0.00000000000E+00 -0.50000000000E+03  0.50000000000E+03  0.00000000000E+00 0.  1.
          5    1    1    2  501    0 -0.30273218327E+03 -0.18124745259E+03  0.35423226299E+03  0.50000000000E+03  0.47000000000E+01 0. -1.
         -5    1    1    2    0  501  0.30273218327E+03  0.18124745259E+03 -0.35423226299E+03  0.50000000000E+03  0.47000000000E+01 0.  1.
</event>
<event>
 4    1  0.4903958E-004  0.1000000E+04  0.7546771E-02  0.8684367E-01
         11   -1    0    0    0    0  0.00000000000E+00  0.00000000000E+00  0.50000000000E+03  0.50000000000E+03  0.00000000000E+00 0. -1.
        -11   -1    0    0    0    0 -0.00000000000E+00 -0.00000000000E+00 -0.50000000000E+03  0.50000000000E+03  0.00000000000E+00 0.  1.
          5    1    1    2  501    0  0.82259420904E+02  0.29949544624E+03  0.39180834008E+03  0.50000000000E+03  0.47000000000E+01 0. -1.
         -5    1    1    2    0  501 -0.82259420904E+02 -0.29949544624E+03 -0.39180834008E+03  0.50000000000E+03  0.47000000000E+01 0.  1.
</event>
<event>
 4    1  0.4903958E-004  0.1000000E+04  0.7546771E-02  0.8684367E-01
         11   -1    0    0    0    0  0.00000000000E+00  0.00000000000E+00  0.50000000000E+03  0.50000000000E+03  0.00000000000E+00 0. -1.
        -11   -1    0    0    0    0 -0.00000000000E+00 -0.00000000000E+00 -0.50000000000E+03  0.50000000000E+03  0.00000000000E+00 0.  1.
          5    1    1    2  501    0  0.17968261703E+03  0.36317958838E+03  0.29290383016E+03  0.50000000000E+03  0.47000000000E+01 0. -1.
         -5    1    1    2    0  501 -0.17968261703E+03 -0.36317958838E+03 -0.29290383016E+03  0.50000000000E+03  0.47000000000E+01 0.  1.
</event>
<event>
 4    1  0.4903958E-004  0.1000000E+04  0.7546771E-02  0.8684367E-01
         11   -1    0    0    0    0  0.00000000000E+00  0.00000000000E+00  0.50000000000E+03  0.50000000000E+03  0.00000000000E+00 0. -1.
        -11   -1    0    0    0    0 -0.00000000000E+00 -0.00000000000E+00 -0.50000000000E+03  0.50000000000E+03  0.00000000000E+00 0.  1.
          5    1    1    2  501    0 -0.32272542483E+03 -0.33864342020E+03  0.17648468525E+03  0.50000000000E+03  0.47000000000E+01 0. -1.
         -5    1    1    2    0  501  0.32272542483E+03  0.33864342020E+03 -0.17648468525E+03  0.50000000000E+03  0.47000000000E+01 0.  1.
</event>
<event>
 4    1  0.4903958E-004  0.1000000E+04  0.7546771E-02  0.8684367E-01
         11   -1    0    0    0    0  0.00000000000E+00  0.00000000000E+00  0.50000000000E+03  0.50000000000E+03  0.00000000000E+00 0. -1.
        -11   -1    0    0    0    0 -0.00000000000E+00 -0.00000000000E+00 -0.50000000000E+03  0.50000000000E+03  0.00000000000E+00 0.  1.
          5    1    1    2  501    0  0.11848266241E+03  0.31787833747E+03  0.36727800271E+03  0.50000000000E+03  0.47000000000E+01 0. -1.
         -5    1    1    2    0  501 -0.11848266241E+03 -0.31787833747E+03 -0.36727800271E+03  0.50000000000E+03  0.47000000000E+01 0.  1.
</event>
<event>
 4    1  0.4903958E-004  0.1000000E+04  0.7546771E-02  0.8684367E-01
         11   -1    0    0    0    0  0.00000000000E+00  0.00000000000E+00  0.50000000000E+03  0.50000000000E+03  0.00000000000E+00 0.  1.
        -11   -1    0    0    0    0 -0.00000000000E+00 -0.00000000000E+00 -0.50000000000E+03  0.50000000000E+03  0.00000000000E+00 0. -1.
          5    1    1    2  501    0 -0.36656408636E+03 -0.63754066906E+02 -0.33398218447E+03  0.50000000000E+03  0.47000000000E+01 0. -1.
         -5    1    1    2    0  501  0.36656408636E+03  0.63754066906E+02  0.33398218447E+03  0.50000000000E+03  0.47000000000E+01 0.  1.
</event>
<event>
 4    1  0.4903958E-004  0.1000000E+04  0.7546771E-02  0.8684367E-01
         11   -1    0    0    0    0  0.00000000000E+00  0.00000000000E+00  0.50000000000E+03  0.50000000000E+03  0.00000000000E+00 0. -1.
        -11   -1    0    0    0    0 -0.00000000000E+00 -0.00000000000E+00 -0.50000000000E+03  0.50000000000E+03  0.00000000000E+00 0.  1.
          5    1    1    2  501    0 -0.43949642720E+03 -0.15660862848E+03  0.17970681112E+03  0.50000000000E+03  0.47000000000E+01 0. -1.
         -5    1    1    2    0  501  0.43949642720E+03  0.15660862848E+03 -0.17970681112E+03  0.50000000000E+03  0.47000000000E+01 0.  1.
</event>
<event>
 4    1  0.4903958E-004  0.1000000E+04  0.7546771E-02  0.8684367E-01
         11   -1    0    0    0    0  0.00000000000E+00  0.00000000000E+00  0.50000000000E+03  0.50000000000E+03  0.00000000000E+00 0. -1.
        -11   -1    0    0    0    0 -0.00000000000E+00 -0.00000000000E+00 -0.50000000000E+03  0.50000000000E+03  0.00000000000E+00 0.  1.
          5    1    1    2  501    0  0.44877760251E+03  0.15188667666E+03  0.15970914482E+03  0.50000000000E+03  0.47000000000E+01 0. -1.
         -5    1    1    2    0  501 -0.44877760251E+03 -0.15188667666E+03 -0.15970914482E+03  0.50000000000E+03  0.47000000000E+01 0.  1.
</event>
<event>
 4    1  0.4903958E-004  0.1000000E+04  0.7546771E-02  0.8684367E-01
         11   -1    0    0    0    0  0.00000000000E+00  0.00000000000E+00  0.50000000000E+03  0.50000000000E+03  0.00000000000E+00 0. -1.
        -11   -1    0    0    0    0 -0.00000000000E+00 -0.00000000000E+00 -0.50000000000E+03  0.50000000000E+03  0.00000000000E+00 0.  1.
          5    1    1    2  501    0  0.38858329005E+03 -0.25157019906E+02  0.31360494423E+03  0.50000000000E+03  0.47000000000E+01 0. -1.
         -5    1    1    2    0  501 -0.38858329005E+03  0.25157019906E+02 -0.31360494423E+03  0.50000000000E+03  0.47000000000E+01 0.  1.
</event>
<event>
 4    1  0.4903958E-004  0.1000000E+04  0.7546771E-02  0.8684367E-01
         11   -1    0    0    0    0  0.00000000000E+00  0.00000000000E+00  0.50000000000E+03  0.50000000000E+03  0.00000000000E+00 0. -1.
        -11   -1    0    0    0    0 -0.00000000000E+00 -0.00000000000E+00 -0.50000000000E+03  0.50000000000E+03  0.00000000000E+00 0.  1.
          5    1    1    2  501    0 -0.33723733951E+03 -0.46962455016E+02  0.36611939946E+03  0.50000000000E+03  0.47000000000E+01 0. -1.
         -5    1    1    2    0  501  0.33723733951E+03  0.46962455016E+02 -0.36611939946E+03  0.50000000000E+03  0.47000000000E+01 0.  1.
</event>
<event>
 4    1  0.4903958E-004  0.1000000E+04  0.7546771E-02  0.8684367E-01
         11   -1    0    0    0    0  0.00000000000E+00  0.00000000000E+00  0.50000000000E+03  0.50000000000E+03  0.00000000000E+00 0.  1.
        -11   -1    0    0    0    0 -0.00000000000E+00 -0.00000000000E+00 -0.50000000000E+03  0.50000000000E+03  0.00000000000E+00 0. -1.
          5    1    1    2  501    0 -0.25994199244E+03 -0.29465011470E+03  0.30917532319E+03  0.50000000000E+03  0.47000000000E+01 0.  1.
         -5    1    1    2    0  501  0.25994199244E+03  0.29465011470E+03 -0.30917532319E+03  0.50000000000E+03  0.47000000000E+01 0. -1.
</event>
<event>
 4    1  0.4903958E-004  0.1000000E+04  0.7546771E-02  0.8684367E-01
         11   -1    0    0    0    0  0.00000000000E+00  0.00000000000E+00  0.50000000000E+03  0.50000000000E+03  0.00000000000E+00 0. -1.
        -11   -1    0    0    0    0 -0.00000000000E+00 -0.00000000000E+00 -0.50000000000E+03  0.50000000000E+03  0.00000000000E+00 0.  1.
          5    1    1    2  501    0 -0.25175455693E+03 -0.12667003356E+03  0.41297972791E+03  0.50000000000E+03  0.47000000000E+01 0. -1.
         -5    1    1    2    0  501  0.25175455693E+03  0.12667003356E+03 -0.41297972791E+03  0.50000000000E+03  0.47000000000E+01 0.  1.
</event>
<event>
 4    1  0.4903958E-004  0.1000000E+04  0.7546771E-02  0.8684367E-01
         11   -1    0    0    0    0  0.00000000000E+00  0.00000000000E+00  0.50000000000E+03  0.50000000000E+03  0.00000000000E+00 0. -1.
        -11   -1    0    0    0    0 -0.00000000000E+00 -0.00000000000E+00 -0.50000000000E+03  0.50000000000E+03  0.00000000000E+00 0.  1.
          5    1    1    2  501    0 -0.25612749729E+03 -0.16226122069E+03  0.39755240081E+03  0.50000000000E+03  0.47000000000E+01 0. -1.
         -5    1    1    2    0  501  0.25612749729E+03  0.16226122069E+03 -0.39755240081E+03  0.50000000000E+03  0.47000000000E+01 0.  1.
</event>
<event>
 4    1  0.4903958E-004  0.1000000E+04  0.7546771E-02  0.8684367E-01
         11   -1    0    0    0    0  0.00000000000E+00  0.00000000000E+00  0.50000000000E+03  0.50000000000E+03  0.00000000000E+00 0. -1.
        -11   -1    0    0    0    0 -0.00000000000E+00 -0.00000000000E+00 -0.50000000000E+03  0.50000000000E+03  0.00000000000E+00 0.  1.
          5    1    1    2  501    0  0.13679473374E+03 -0.39948010260E+03 -0.26773262492E+03  0.50000000000E+03  0.47000000000E+01 0. -1.
         -5    1    1    2    0  501 -0.13679473374E+03  0.39948010260E+03  0.26773262492E+03  0.50000000000E+03  0.47000000000E+01 0.  1.
</event>
<event>
 4    1  0.4903958E-004  0.1000000E+04  0.7546771E-02  0.8684367E-01
         11   -1    0    0    0    0  0.00000000000E+00  0.00000000000E+00  0.50000000000E+03  0.50000000000E+03  0.00000000000E+00 0.  1.
        -11   -1    0    0    0    0 -0.00000000000E+00 -0.00000000000E+00 -0.50000000000E+03  0.50000000000E+03  0.00000000000E+00 0. -1.
          5    1    1    2  501    0  0.44019391248E+03  0.22973518530E+03 -0.58557442305E+02  0.50000000000E+03  0.47000000000E+01 0. -1.
         -5    1    1    2    0  501 -0.44019391248E+03 -0.22973518530E+03  0.58557442305E+02  0.50000000000E+03  0.47000000000E+01 0.  1.
</event>
<event>
 4    1  0.4903958E-004  0.1000000E+04  0.7546771E-02  0.8684367E-01
         11   -1    0    0    0    0  0.00000000000E+00  0.00000000000E+00  0.50000000000E+03  0.50000000000E+03  0.00000000000E+00 0. -1.
        -11   -1    0    0    0    0 -0.00000000000E+00 -0.00000000000E+00 -0.50000000000E+03  0.50000000000E+03  0.00000000000E+00 0.  1.
          5    1    1    2  501    0 -0.47945147807E+03  0.12435287534E+03  0.68121601385E+02  0.50000000000E+03  0.47000000000E+01 0. -1.
         -5    1    1    2    0  501  0.47945147807E+03 -0.12435287534E+03 -0.68121601385E+02  0.50000000000E+03  0.47000000000E+01 0.  1.
</event>
<event>
 4    1  0.4903958E-004  0.1000000E+04  0.7546771E-02  0.8684367E-01
         11   -1    0    0    0    0  0.00000000000E+00  0.00000000000E+00  0.50000000000E+03  0.50000000000E+03  0.00000000000E+00 0. -1.
        -11   -1    0    0    0    0 -0.00000000000E+00 -0.00000000000E+00 -0.50000000000E+03  0.50000000000E+03  0.00000000000E+00 0.  1.
          5    1    1    2  501    0 -0.37700266007E+03  0.15980535054E+03  0.28689572015E+03  0.50000000000E+03  0.47000000000E+01 0. -1.
         -5    1    1    2    0  501  0.37700266007E+03 -0.15980535054E+03 -0.28689572015E+03  0.50000000000E+03  0.47000000000E+01 0.  1.
</event>
<event>
 4    1  0.4903958E-004  0.1000000E+04  0.7546771E-02  0.8684367E-01
         11   -1    0    0    0    0  0.00000000000E+00  0.00000000000E+00  0.50000000000E+03  0.50000000000E+03  0.00000000000E+00 0. -1.
        -11   -1    0    0    0    0 -0.00000000000E+00 -0.00000000000E+00 -0.50000000000E+03  0.50000000000E+03  0.00000000000E+00 0.  1.
          5    1    1    2  501    0  0.36406576812E+03  0.25018988914E+03  0.23417738119E+03  0.50000000000E+03  0.47000000000E+01 0. -1.
         -5    1    1    2    0  501 -0.36406576812E+03 -0.25018988914E+03 -0.23417738119E+03  0.50000000000E+03  0.47000000000E+01 0.  1.
</event>
<event>
 4    1  0.4903958E-004  0.1000000E+04  0.7546771E-02  0.8684367E-01
         11   -1    0    0    0    0  0.00000000000E+00  0.00000000000E+00  0.50000000000E+03  0.50000000000E+03  0.00000000000E+00 0.  1.
        -11   -1    0    0    0    0 -0.00000000000E+00 -0.00000000000E+00 -0.50000000000E+03  0.50000000000E+03  0.00000000000E+00 0. -1.
          5    1    1    2  501    0  0.34584516277E+02 -0.26406790270E+03  0.42314295929E+03  0.50000000000E+03  0.47000000000E+01 0.  1.
         -5    1    1    2    0  501 -0.34584516277E+02  0.26406790270E+03 -0.42314295929E+03  0.50000000000E+03  0.47000000000E+01 0. -1.
</event>
<event>
 4    1  0.4903958E-004  0.1000000E+04  0.7546771E-02  0.8684367E-01
         11   -1    0    0    0    0  0.00000000000E+00  0.00000000000E+00  0.50000000000E+03  0.50000000000E+03  0.00000000000E+00 0. -1.
        -11   -1    0    0    0    0 -0.00000000000E+00 -0.00000000000E+00 -0.50000000000E+03  0.50000000000E+03  0.00000000000E+00 0.  1.
          5    1    1    2  501    0  0.15798246926E+03  0.76984142630E+02  0.46807359591E+03  0.50000000000E+03  0.47000000000E+01 0. -1.
         -5    1    1    2    0  501 -0.15798246926E+03 -0.76984142630E+02 -0.46807359591E+03  0.50000000000E+03  0.47000000000E+01 0.  1.
</event>
<event>
 4    1  0.4903958E-004  0.1000000E+04  0.7546771E-02  0.8684367E-01
         11   -1    0    0    0    0  0.00000000000E+00  0.00000000000E+00  0.50000000000E+03  0.50000000000E+03  0.00000000000E+00 0. -1.
        -11   -1    0    0    0    0 -0.00000000000E+00 -0.00000000000E+00 -0.50000000000E+03  0.50000000000E+03  0.00000000000E+00 0.  1.
          5    1    1    2  501    0 -0.30436152234E+03  0.38045885472E+03  0.11221868643E+03  0.50000000000E+03  0.47000000000E+01 0. -1.
         -5    1    1    2    0  501  0.30436152234E+03 -0.38045885472E+03 -0.11221868643E+03  0.50000000000E+03  0.47000000000E+01 0.  1.
</event>
<event>
 4    1  0.4903958E-004  0.1000000E+04  0.7546771E-02  0.8684367E-01
         11   -1    0    0    0    0  0.00000000000E+00  0.00000000000E+00  0.50000000000E+03  0.50000000000E+03  0.00000000000E+00 0. -1.
        -11   -1    0    0    0    0 -0.00000000000E+00 -0.00000000000E+00 -0.50000000000E+03  0.50000000000E+03  0.00000000000E+00 0.  1.
          5    1    1    2  501    0 -0.15445481645E+02  0.10927800083E+03  0.48764502010E+03  0.50000000000E+03  0.47000000000E+01 0. -1.
         -5    1    1    2    0  501  0.15445481645E+02 -0.10927800083E+03 -0.48764502010E+03  0.50000000000E+03  0.47000000000E+01 0.  1.
</event>
<event>
 4    1  0.4903958E-004  0.1000000E+04  0.7546771E-02  0.8684367E-01
         11   -1    0    0    0    0  0.00000000000E+00  0.00000000000E+00  0.50000000000E+03  0.50000000000E+03  0.00000000000E+00 0. -1.
        -11   -1    0    0    0    0 -0.00000000000E+00 -0.00000000000E+00 -0.50000000000E+03  0.50000000000E+03  0.00000000000E+00 0.  1.
          5    1    1    2  501    0 -0.17048391298E+03  0.33844100674E+03  0.32614541292E+03  0.50000000000E+03  0.47000000000E+01 0. -1.
         -5    1    1    2    0  501  0.17048391298E+03 -0.33844100674E+03 -0.32614541292E+03  0.50000000000E+03  0.47000000000E+01 0.  1.
</event>
<event>
 4    1  0.4903958E-004  0.1000000E+04  0.7546771E-02  0.8684367E-01
         11   -1    0    0    0    0  0.00000000000E+00  0.00000000000E+00  0.50000000000E+03  0.50000000000E+03  0.00000000000E+00 0.  1.
        -11   -1    0    0    0    0 -0.00000000000E+00 -0.00000000000E+00 -0.50000000000E+03  0.50000000000E+03  0.00000000000E+00 0. -1.
          5    1    1    2  501    0  0.25816869637E+03  0.14562530640E+03  0.40264140914E+03  0.50000000000E+03  0.47000000000E+01 0.  1.
         -5    1    1    2    0  501 -0.25816869637E+03 -0.14562530640E+03 -0.40264140914E+03  0.50000000000E+03  0.47000000000E+01 0. -1.
</event>
<event>
 4    1  0.4903958E-004  0.1000000E+04  0.7546771E-02  0.8684367E-01
         11   -1    0    0    0    0  0.00000000000E+00  0.00000000000E+00  0.50000000000E+03  0.50000000000E+03  0.00000000000E+00 0.  1.
        -11   -1    0    0    0    0 -0.00000000000E+00 -0.00000000000E+00 -0.50000000000E+03  0.50000000000E+03  0.00000000000E+00 0. -1.
          5    1    1    2  501    0 -0.21333829726E+03  0.22417489637E+03  0.39269618888E+03  0.50000000000E+03  0.47000000000E+01 0.  1.
         -5    1    1    2    0  501  0.21333829726E+03 -0.22417489637E+03 -0.39269618888E+03  0.50000000000E+03  0.47000000000E+01 0. -1.
</event>
<event>
 4    1  0.4903958E-004  0.1000000E+04  0.7546771E-02  0.8684367E-01
         11   -1    0    0    0    0  0.00000000000E+00  0.00000000000E+00  0.50000000000E+03  0.50000000000E+03  0.00000000000E+00 0. -1.
        -11   -1    0    0    0    0 -0.00000000000E+00 -0.00000000000E+00 -0.50000000000E+03  0.50000000000E+03  0.00000000000E+00 0.  1.
          5    1    1    2  501    0  0.16344106588E+03  0.11934750675E+03  0.45718825512E+03  0.50000000000E+03  0.47000000000E+01 0. -1.
         -5    1    1    2    0  501 -0.16344106588E+03 -0.11934750675E+03 -0.45718825512E+03  0.50000000000E+03  0.47000000000E+01 0.  1.
</event>
<event>
 4    1  0.4903958E-004  0.1000000E+04  0.7546771E-02  0.8684367E-01
         11   -1    0    0    0    0  0.00000000000E+00  0.00000000000E+00  0.50000000000E+03  0.50000000000E+03  0.00000000000E+00 0. -1.
        -11   -1    0    0    0    0 -0.00000000000E+00 -0.00000000000E+00 -0.50000000000E+03  0.50000000000E+03  0.00000000000E+00 0.  1.
          5    1    1    2  501    0  0.78445324948E+02  0.40108585803E+03  0.28801801243E+03  0.50000000000E+03  0.47000000000E+01 0. -1.
         -5    1    1    2    0  501 -0.78445324948E+02 -0.40108585803E+03 -0.28801801243E+03  0.50000000000E+03  0.47000000000E+01 0.  1.
</event>
<event>
 4    1  0.4903958E-004  0.1000000E+04  0.7546771E-02  0.8684367E-01
         11   -1    0    0    0    0  0.00000000000E+00  0.00000000000E+00  0.50000000000E+03  0.50000000000E+03  0.00000000000E+00 0. -1.
        -11   -1    0    0    0    0 -0.00000000000E+00 -0.00000000000E+00 -0.50000000000E+03  0.50000000000E+03  0.00000000000E+00 0.  1.
          5    1    1    2  501    0  0.39093987542E+03  0.92040363243E+02  0.29777927286E+03  0.50000000000E+03  0.47000000000E+01 0. -1.
         -5    1    1    2    0  501 -0.39093987542E+03 -0.92040363243E+02 -0.29777927286E+03  0.50000000000E+03  0.47000000000E+01 0.  1.
</event>
<event>
 4    1  0.4903958E-004  0.1000000E+04  0.7546771E-02  0.8684367E-01
         11   -1    0    0    0    0  0.00000000000E+00  0.00000000000E+00  0.50000000000E+03  0.50000000000E+03  0.00000000000E+00 0. -1.
        -11   -1    0    0    0    0 -0.00000000000E+00 -0.00000000000E+00 -0.50000000000E+03  0.50000000000E+03  0.00000000000E+00 0.  1.
          5    1    1    2  501    0 -0.23309101695E+03  0.13675087230E+03  0.42064912545E+03  0.50000000000E+03  0.47000000000E+01 0. -1.
         -5    1    1    2    0  501  0.23309101695E+03 -0.13675087230E+03 -0.42064912545E+03  0.50000000000E+03  0.47000000000E+01 0.  1.
</event>
<event>
 4    1  0.4903958E-004  0.1000000E+04  0.7546771E-02  0.8684367E-01
         11   -1    0    0    0    0  0.00000000000E+00  0.00000000000E+00  0.50000000000E+03  0.50000000000E+03  0.00000000000E+00 0.  1.
        -11   -1    0    0    0    0 -0.00000000000E+00 -0.00000000000E+00 -0.50000000000E+03  0.50000000000E+03  0.00000000000E+00 0. -1.
          5    1    1    2  501    0  0.44238693163E+03 -0.19218222422E+03  0.13167272087E+03  0.50000000000E+03  0.47000000000E+01 0.  1.
         -5    1    1    2    0  501 -0.44238693163E+03  0.19218222422E+03 -0.13167272087E+03  0.50000000000E+03  0.47000000000E+01 0. -1.
</event>
<event>
 4    1  0.4903958E-004  0.1000000E+04  0.7546771E-02  0.8684367E-01
         11   -1    0    0    0    0  0.00000000000E+00  0.00000000000E+00  0.50000000000E+03  0.50000000000E+03  0.00000000000E+00 0. -1.
        -11   -1    0    0    0    0 -0.00000000000E+00 -0.00000000000E+00 -0.50000000000E+03  0.50000000000E+03  0.00000000000E+00 0.  1.
          5    1    1    2  501    0 -0.49191670331E+03 -0.53535888728E+02  0.71622451914E+02  0.50000000000E+03  0.47000000000E+01 0. -1.
         -5    1    1    2    0  501  0.49191670331E+03  0.53535888728E+02 -0.71622451914E+02  0.50000000000E+03  0.47000000000E+01 0.  1.
</event>
<event>
 4    1  0.4903958E-004  0.1000000E+04  0.7546771E-02  0.8684367E-01
         11   -1    0    0    0    0  0.00000000000E+00  0.00000000000E+00  0.50000000000E+03  0.50000000000E+03  0.00000000000E+00 0. -1.
        -11   -1    0    0    0    0 -0.00000000000E+00 -0.00000000000E+00 -0.50000000000E+03  0.50000000000E+03  0.00000000000E+00 0.  1.
          5    1    1    2  501    0  0.85786368857E+02  0.33474753315E+03 -0.36133460666E+03  0.50000000000E+03  0.47000000000E+01 0.  1.
         -5    1    1    2    0  501 -0.85786368857E+02 -0.33474753315E+03  0.36133460666E+03  0.50000000000E+03  0.47000000000E+01 0. -1.
</event>
<event>
 4    1  0.4903958E-004  0.1000000E+04  0.7546771E-02  0.8684367E-01
         11   -1    0    0    0    0  0.00000000000E+00  0.00000000000E+00  0.50000000000E+03  0.50000000000E+03  0.00000000000E+00 0. -1.
        -11   -1    0    0    0    0 -0.00000000000E+00 -0.00000000000E+00 -0.50000000000E+03  0.50000000000E+03  0.00000000000E+00 0.  1.
          5    1    1    2  501    0  0.17572693107E+03 -0.46723880156E+03 -0.28033159086E+02  0.50000000000E+03  0.47000000000E+01 0. -1.
         -5    1    1    2    0  501 -0.17572693107E+03  0.46723880156E+03  0.28033159086E+02  0.50000000000E+03  0.47000000000E+01 0.  1.
</event>
<event>
 4    1  0.4903958E-004  0.1000000E+04  0.7546771E-02  0.8684367E-01
         11   -1    0    0    0    0  0.00000000000E+00  0.00000000000E+00  0.50000000000E+03  0.50000000000E+03  0.00000000000E+00 0. -1.
        -11   -1    0    0    0    0 -0.00000000000E+00 -0.00000000000E+00 -0.50000000000E+03  0.50000000000E+03  0.00000000000E+00 0.  1.
          5    1    1    2  501    0  0.30375695600E+03  0.54228381405E+02  0.39340679243E+03  0.50000000000E+03  0.47000000000E+01 0. -1.
         -5    1    1    2    0  501 -0.30375695600E+03 -0.54228381405E+02 -0.39340679243E+03  0.50000000000E+03  0.47000000000E+01 0.  1.
</event>
<event>
 4    1  0.4903958E-004  0.1000000E+04  0.7546771E-02  0.8684367E-01
         11   -1    0    0    0    0  0.00000000000E+00  0.00000000000E+00  0.50000000000E+03  0.50000000000E+03  0.00000000000E+00 0. -1.
        -11   -1    0    0    0    0 -0.00000000000E+00 -0.00000000000E+00 -0.50000000000E+03  0.50000000000E+03  0.00000000000E+00 0.  1.
          5    1    1    2  501    0 -0.10005314466E+03 -0.48531841345E+03  0.66583149621E+02  0.50000000000E+03  0.47000000000E+01 0. -1.
         -5    1    1    2    0  501  0.10005314466E+03  0.48531841345E+03 -0.66583149621E+02  0.50000000000E+03  0.47000000000E+01 0.  1.
</event>
<event>
 4    1  0.4903958E-004  0.1000000E+04  0.7546771E-02  0.8684367E-01
         11   -1    0    0    0    0  0.00000000000E+00  0.00000000000E+00  0.50000000000E+03  0.50000000000E+03  0.00000000000E+00 0. -1.
        -11   -1    0    0    0    0 -0.00000000000E+00 -0.00000000000E+00 -0.50000000000E+03  0.50000000000E+03  0.00000000000E+00 0.  1.
          5    1    1    2  501    0 -0.47929982330E+03 -0.13935376713E+03 -0.28811750603E+02  0.50000000000E+03  0.47000000000E+01 0. -1.
         -5    1    1    2    0  501  0.47929982330E+03  0.13935376713E+03  0.28811750603E+02  0.50000000000E+03  0.47000000000E+01 0.  1.
</event>
<event>
 4    1  0.4903958E-004  0.1000000E+04  0.7546771E-02  0.8684367E-01
         11   -1    0    0    0    0  0.00000000000E+00  0.00000000000E+00  0.50000000000E+03  0.50000000000E+03  0.00000000000E+00 0. -1.
        -11   -1    0    0    0    0 -0.00000000000E+00 -0.00000000000E+00 -0.50000000000E+03  0.50000000000E+03  0.00000000000E+00 0.  1.
          5    1    1    2  501    0  0.31157014693E+03  0.31787434851E+03  0.22772319183E+03  0.50000000000E+03  0.47000000000E+01 0. -1.
         -5    1    1    2    0  501 -0.31157014693E+03 -0.31787434851E+03 -0.22772319183E+03  0.50000000000E+03  0.47000000000E+01 0.  1.
</event>
<event>
 4    1  0.4903958E-004  0.1000000E+04  0.7546771E-02  0.8684367E-01
         11   -1    0    0    0    0  0.00000000000E+00  0.00000000000E+00  0.50000000000E+03  0.50000000000E+03  0.00000000000E+00 0. -1.
        -11   -1    0    0    0    0 -0.00000000000E+00 -0.00000000000E+00 -0.50000000000E+03  0.50000000000E+03  0.00000000000E+00 0.  1.
          5    1    1    2  501    0  0.16669599473E+03  0.13428303028E+02  0.47117940959E+03  0.50000000000E+03  0.47000000000E+01 0. -1.
         -5    1    1    2    0  501 -0.16669599473E+03 -0.13428303028E+02 -0.47117940959E+03  0.50000000000E+03  0.47000000000E+01 0.  1.
</event>
<event>
 4    1  0.4903958E-004  0.1000000E+04  0.7546771E-02  0.8684367E-01
         11   -1    0    0    0    0  0.00000000000E+00  0.00000000000E+00  0.50000000000E+03  0.50000000000E+03  0.00000000000E+00 0. -1.
        -11   -1    0    0    0    0 -0.00000000000E+00 -0.00000000000E+00 -0.50000000000E+03  0.50000000000E+03  0.00000000000E+00 0.  1.
          5    1    1    2  501    0  0.15907977036E+03  0.30557546405E+03  0.36234675717E+03  0.50000000000E+03  0.47000000000E+01 0. -1.
         -5    1    1    2    0  501 -0.15907977036E+03 -0.30557546405E+03 -0.36234675717E+03  0.50000000000E+03  0.47000000000E+01 0.  1.
</event>
<event>
 4    1  0.4903958E-004  0.1000000E+04  0.7546771E-02  0.8684367E-01
         11   -1    0    0    0    0  0.00000000000E+00  0.00000000000E+00  0.50000000000E+03  0.50000000000E+03  0.00000000000E+00 0. -1.
        -11   -1    0    0    0    0 -0.00000000000E+00 -0.00000000000E+00 -0.50000000000E+03  0.50000000000E+03  0.00000000000E+00 0.  1.
          5    1    1    2  501    0 -0.38387479221E+02  0.15053917602E+03  0.47522864804E+03  0.50000000000E+03  0.47000000000E+01 0. -1.
         -5    1    1    2    0  501  0.38387479221E+02 -0.15053917602E+03 -0.47522864804E+03  0.50000000000E+03  0.47000000000E+01 0.  1.
</event>
<event>
 4    1  0.4903958E-004  0.1000000E+04  0.7546771E-02  0.8684367E-01
         11   -1    0    0    0    0  0.00000000000E+00  0.00000000000E+00  0.50000000000E+03  0.50000000000E+03  0.00000000000E+00 0. -1.
        -11   -1    0    0    0    0 -0.00000000000E+00 -0.00000000000E+00 -0.50000000000E+03  0.50000000000E+03  0.00000000000E+00 0.  1.
          5    1    1    2  501    0 -0.24574877095E+03 -0.30633867881E+03  0.30942214762E+03  0.50000000000E+03  0.47000000000E+01 0. -1.
         -5    1    1    2    0  501  0.24574877095E+03  0.30633867881E+03 -0.30942214762E+03  0.50000000000E+03  0.47000000000E+01 0.  1.
</event>
<event>
 4    1  0.4903958E-004  0.1000000E+04  0.7546771E-02  0.8684367E-01
         11   -1    0    0    0    0  0.00000000000E+00  0.00000000000E+00  0.50000000000E+03  0.50000000000E+03  0.00000000000E+00 0. -1.
        -11   -1    0    0    0    0 -0.00000000000E+00 -0.00000000000E+00 -0.50000000000E+03  0.50000000000E+03  0.00000000000E+00 0.  1.
          5    1    1    2  501    0 -0.48283169495E+03 -0.12953553415E+03 -0.84858557773E+01  0.50000000000E+03  0.47000000000E+01 0. -1.
         -5    1    1    2    0  501  0.48283169495E+03  0.12953553415E+03  0.84858557773E+01  0.50000000000E+03  0.47000000000E+01 0.  1.
</event>
<event>
 4    1  0.4903958E-004  0.1000000E+04  0.7546771E-02  0.8684367E-01
         11   -1    0    0    0    0  0.00000000000E+00  0.00000000000E+00  0.50000000000E+03  0.50000000000E+03  0.00000000000E+00 0.  1.
        -11   -1    0    0    0    0 -0.00000000000E+00 -0.00000000000E+00 -0.50000000000E+03  0.50000000000E+03  0.00000000000E+00 0. -1.
          5    1    1    2  501    0 -0.35071287884E+03  0.27688355279E+03  0.22430756743E+03  0.50000000000E+03  0.47000000000E+01 0.  1.
         -5    1    1    2    0  501  0.35071287884E+03 -0.27688355279E+03 -0.22430756743E+03  0.50000000000E+03  0.47000000000E+01 0. -1.
</event>
<event>
 4    1  0.4903958E-004  0.1000000E+04  0.7546771E-02  0.8684367E-01
         11   -1    0    0    0    0  0.00000000000E+00  0.00000000000E+00  0.50000000000E+03  0.50000000000E+03  0.00000000000E+00 0. -1.
        -11   -1    0    0    0    0 -0.00000000000E+00 -0.00000000000E+00 -0.50000000000E+03  0.50000000000E+03  0.00000000000E+00 0.  1.
          5    1    1    2  501    0  0.38312276515E+03  0.30851130893E+03  0.89530045717E+02  0.50000000000E+03  0.47000000000E+01 0. -1.
         -5    1    1    2    0  501 -0.38312276515E+03 -0.30851130893E+03 -0.89530045717E+02  0.50000000000E+03  0.47000000000E+01 0.  1.
</event>
<event>
 4    1  0.4903958E-004  0.1000000E+04  0.7546771E-02  0.8684367E-01
         11   -1    0    0    0    0  0.00000000000E+00  0.00000000000E+00  0.50000000000E+03  0.50000000000E+03  0.00000000000E+00 0. -1.
        -11   -1    0    0    0    0 -0.00000000000E+00 -0.00000000000E+00 -0.50000000000E+03  0.50000000000E+03  0.00000000000E+00 0.  1.
          5    1    1    2  501    0 -0.37855334675E+02 -0.48489198387E+03 -0.11586478159E+03  0.50000000000E+03  0.47000000000E+01 0. -1.
         -5    1    1    2    0  501  0.37855334675E+02  0.48489198387E+03  0.11586478159E+03  0.50000000000E+03  0.47000000000E+01 0.  1.
</event>
<event>
 4    1  0.4903958E-004  0.1000000E+04  0.7546771E-02  0.8684367E-01
         11   -1    0    0    0    0  0.00000000000E+00  0.00000000000E+00  0.50000000000E+03  0.50000000000E+03  0.00000000000E+00 0. -1.
        -11   -1    0    0    0    0 -0.00000000000E+00 -0.00000000000E+00 -0.50000000000E+03  0.50000000000E+03  0.00000000000E+00 0.  1.
          5    1    1    2  501    0 -0.25685639272E+03  0.26067023356E+03  0.34066660073E+03  0.50000000000E+03  0.47000000000E+01 0. -1.
         -5    1    1    2    0  501  0.25685639272E+03 -0.26067023356E+03 -0.34066660073E+03  0.50000000000E+03  0.47000000000E+01 0.  1.
</event>
<event>
 4    1  0.4903958E-004  0.1000000E+04  0.7546771E-02  0.8684367E-01
         11   -1    0    0    0    0  0.00000000000E+00  0.00000000000E+00  0.50000000000E+03  0.50000000000E+03  0.00000000000E+00 0. -1.
        -11   -1    0    0    0    0 -0.00000000000E+00 -0.00000000000E+00 -0.50000000000E+03  0.50000000000E+03  0.00000000000E+00 0.  1.
          5    1    1    2  501    0 -0.57833762624E+02  0.77763768539E+02  0.49049562914E+03  0.50000000000E+03  0.47000000000E+01 0. -1.
         -5    1    1    2    0  501  0.57833762624E+02 -0.77763768539E+02 -0.49049562914E+03  0.50000000000E+03  0.47000000000E+01 0.  1.
</event>
<event>
 4    1  0.4903958E-004  0.1000000E+04  0.7546771E-02  0.8684367E-01
         11   -1    0    0    0    0  0.00000000000E+00  0.00000000000E+00  0.50000000000E+03  0.50000000000E+03  0.00000000000E+00 0. -1.
        -11   -1    0    0    0    0 -0.00000000000E+00 -0.00000000000E+00 -0.50000000000E+03  0.50000000000E+03  0.00000000000E+00 0.  1.
          5    1    1    2  501    0 -0.28137741145E+02  0.15697544417E+03  0.47386167544E+03  0.50000000000E+03  0.47000000000E+01 0. -1.
         -5    1    1    2    0  501  0.28137741145E+02 -0.15697544417E+03 -0.47386167544E+03  0.50000000000E+03  0.47000000000E+01 0.  1.
</event>
<event>
 4    1  0.4903958E-004  0.1000000E+04  0.7546771E-02  0.8684367E-01
         11   -1    0    0    0    0  0.00000000000E+00  0.00000000000E+00  0.50000000000E+03  0.50000000000E+03  0.00000000000E+00 0. -1.
        -11   -1    0    0    0    0 -0.00000000000E+00 -0.00000000000E+00 -0.50000000000E+03  0.50000000000E+03  0.00000000000E+00 0.  1.
          5    1    1    2  501    0  0.25024040285E+03 -0.22735555556E+03  0.36833015372E+03  0.50000000000E+03  0.47000000000E+01 0. -1.
         -5    1    1    2    0  501 -0.25024040285E+03  0.22735555556E+03 -0.36833015372E+03  0.50000000000E+03  0.47000000000E+01 0.  1.
</event>
<event>
 4    1  0.4903958E-004  0.1000000E+04  0.7546771E-02  0.8684367E-01
         11   -1    0    0    0    0  0.00000000000E+00  0.00000000000E+00  0.50000000000E+03  0.50000000000E+03  0.00000000000E+00 0. -1.
        -11   -1    0    0    0    0 -0.00000000000E+00 -0.00000000000E+00 -0.50000000000E+03  0.50000000000E+03  0.00000000000E+00 0.  1.
          5    1    1    2  501    0  0.16923764105E+03  0.42383019309E+03  0.20421679235E+03  0.50000000000E+03  0.47000000000E+01 0. -1.
         -5    1    1    2    0  501 -0.16923764105E+03 -0.42383019309E+03 -0.20421679235E+03  0.50000000000E+03  0.47000000000E+01 0.  1.
</event>
<event>
 4    1  0.4903958E-004  0.1000000E+04  0.7546771E-02  0.8684367E-01
         11   -1    0    0    0    0  0.00000000000E+00  0.00000000000E+00  0.50000000000E+03  0.50000000000E+03  0.00000000000E+00 0. -1.
        -11   -1    0    0    0    0 -0.00000000000E+00 -0.00000000000E+00 -0.50000000000E+03  0.50000000000E+03  0.00000000000E+00 0.  1.
          5    1    1    2  501    0 -0.29759932351E+03 -0.37045347978E+02  0.40005024040E+03  0.50000000000E+03  0.47000000000E+01 0. -1.
         -5    1    1    2    0  501  0.29759932351E+03  0.37045347978E+02 -0.40005024040E+03  0.50000000000E+03  0.47000000000E+01 0.  1.
</event>
<event>
 4    1  0.4903958E-004  0.1000000E+04  0.7546771E-02  0.8684367E-01
         11   -1    0    0    0    0  0.00000000000E+00  0.00000000000E+00  0.50000000000E+03  0.50000000000E+03  0.00000000000E+00 0. -1.
        -11   -1    0    0    0    0 -0.00000000000E+00 -0.00000000000E+00 -0.50000000000E+03  0.50000000000E+03  0.00000000000E+00 0.  1.
          5    1    1    2  501    0  0.44497209800E+03 -0.12879475910E+03  0.18812137580E+03  0.50000000000E+03  0.47000000000E+01 0. -1.
         -5    1    1    2    0  501 -0.44497209800E+03  0.12879475910E+03 -0.18812137580E+03  0.50000000000E+03  0.47000000000E+01 0.  1.
</event>
<event>
 4    1  0.4903958E-004  0.1000000E+04  0.7546771E-02  0.8684367E-01
         11   -1    0    0    0    0  0.00000000000E+00  0.00000000000E+00  0.50000000000E+03  0.50000000000E+03  0.00000000000E+00 0. -1.
        -11   -1    0    0    0    0 -0.00000000000E+00 -0.00000000000E+00 -0.50000000000E+03  0.50000000000E+03  0.00000000000E+00 0.  1.
          5    1    1    2  501    0 -0.29676400113E+02 -0.79230971250E+02  0.49276736344E+03  0.50000000000E+03  0.47000000000E+01 0. -1.
         -5    1    1    2    0  501  0.29676400113E+02  0.79230971250E+02 -0.49276736344E+03  0.50000000000E+03  0.47000000000E+01 0.  1.
</event>
<event>
 4    1  0.4903958E-004  0.1000000E+04  0.7546771E-02  0.8684367E-01
         11   -1    0    0    0    0  0.00000000000E+00  0.00000000000E+00  0.50000000000E+03  0.50000000000E+03  0.00000000000E+00 0. -1.
        -11   -1    0    0    0    0 -0.00000000000E+00 -0.00000000000E+00 -0.50000000000E+03  0.50000000000E+03  0.00000000000E+00 0.  1.
          5    1    1    2  501    0 -0.20837391719E+03  0.45431198239E+03 -0.12603304578E+02  0.50000000000E+03  0.47000000000E+01 0. -1.
         -5    1    1    2    0  501  0.20837391719E+03 -0.45431198239E+03  0.12603304578E+02  0.50000000000E+03  0.47000000000E+01 0.  1.
</event>
<event>
 4    1  0.4903958E-004  0.1000000E+04  0.7546771E-02  0.8684367E-01
         11   -1    0    0    0    0  0.00000000000E+00  0.00000000000E+00  0.50000000000E+03  0.50000000000E+03  0.00000000000E+00 0. -1.
        -11   -1    0    0    0    0 -0.00000000000E+00 -0.00000000000E+00 -0.50000000000E+03  0.50000000000E+03  0.00000000000E+00 0.  1.
          5    1    1    2  501    0  0.32278912347E+02 -0.41347199691E+03  0.27924342354E+03  0.50000000000E+03  0.47000000000E+01 0. -1.
         -5    1    1    2    0  501 -0.32278912347E+02  0.41347199691E+03 -0.27924342354E+03  0.50000000000E+03  0.47000000000E+01 0.  1.
</event>
<event>
 4    1  0.4903958E-004  0.1000000E+04  0.7546771E-02  0.8684367E-01
         11   -1    0    0    0    0  0.00000000000E+00  0.00000000000E+00  0.50000000000E+03  0.50000000000E+03  0.00000000000E+00 0. -1.
        -11   -1    0    0    0    0 -0.00000000000E+00 -0.00000000000E+00 -0.50000000000E+03  0.50000000000E+03  0.00000000000E+00 0.  1.
          5    1    1    2  501    0  0.20091009818E+03 -0.19726482784E+02  0.45741000025E+03  0.50000000000E+03  0.47000000000E+01 0. -1.
         -5    1    1    2    0  501 -0.20091009818E+03  0.19726482784E+02 -0.45741000025E+03  0.50000000000E+03  0.47000000000E+01 0.  1.
</event>
<event>
 4    1  0.4903958E-004  0.1000000E+04  0.7546771E-02  0.8684367E-01
         11   -1    0    0    0    0  0.00000000000E+00  0.00000000000E+00  0.50000000000E+03  0.50000000000E+03  0.00000000000E+00 0.  1.
        -11   -1    0    0    0    0 -0.00000000000E+00 -0.00000000000E+00 -0.50000000000E+03  0.50000000000E+03  0.00000000000E+00 0. -1.
          5    1    1    2  501    0  0.34688559882E+03 -0.28352426512E+03  0.22195108113E+03  0.50000000000E+03  0.47000000000E+01 0.  1.
         -5    1    1    2    0  501 -0.34688559882E+03  0.28352426512E+03 -0.22195108113E+03  0.50000000000E+03  0.47000000000E+01 0. -1.
</event>
<event>
 4    1  0.4903958E-004  0.1000000E+04  0.7546771E-02  0.8684367E-01
         11   -1    0    0    0    0  0.00000000000E+00  0.00000000000E+00  0.50000000000E+03  0.50000000000E+03  0.00000000000E+00 0. -1.
        -11   -1    0    0    0    0 -0.00000000000E+00 -0.00000000000E+00 -0.50000000000E+03  0.50000000000E+03  0.00000000000E+00 0.  1.
          5    1    1    2  501    0  0.16066398131E+02 -0.10828960935E+03  0.48784540723E+03  0.50000000000E+03  0.47000000000E+01 0. -1.
         -5    1    1    2    0  501 -0.16066398131E+02  0.10828960935E+03 -0.48784540723E+03  0.50000000000E+03  0.47000000000E+01 0.  1.
</event>
<event>
 4    1  0.4903958E-004  0.1000000E+04  0.7546771E-02  0.8684367E-01
         11   -1    0    0    0    0  0.00000000000E+00  0.00000000000E+00  0.50000000000E+03  0.50000000000E+03  0.00000000000E+00 0. -1.
        -11   -1    0    0    0    0 -0.00000000000E+00 -0.00000000000E+00 -0.50000000000E+03  0.50000000000E+03  0.00000000000E+00 0.  1.
          5    1    1    2  501    0 -0.59029771866E+01  0.49958632257E+03  0.18883091911E+02  0.50000000000E+03  0.47000000000E+01 0. -1.
         -5    1    1    2    0  501  0.59029771866E+01 -0.49958632257E+03 -0.18883091911E+02  0.50000000000E+03  0.47000000000E+01 0.  1.
</event>
<event>
 4    1  0.4903958E-004  0.1000000E+04  0.7546771E-02  0.8684367E-01
         11   -1    0    0    0    0  0.00000000000E+00  0.00000000000E+00  0.50000000000E+03  0.50000000000E+03  0.00000000000E+00 0. -1.
        -11   -1    0    0    0    0 -0.00000000000E+00 -0.00000000000E+00 -0.50000000000E+03  0.50000000000E+03  0.00000000000E+00 0.  1.
          5    1    1    2  501    0 -0.11546840813E+03  0.18823853677E+03  0.44856572539E+03  0.50000000000E+03  0.47000000000E+01 0. -1.
         -5    1    1    2    0  501  0.11546840813E+03 -0.18823853677E+03 -0.44856572539E+03  0.50000000000E+03  0.47000000000E+01 0.  1.
</event>
<event>
 4    1  0.4903958E-004  0.1000000E+04  0.7546771E-02  0.8684367E-01
         11   -1    0    0    0    0  0.00000000000E+00  0.00000000000E+00  0.50000000000E+03  0.50000000000E+03  0.00000000000E+00 0. -1.
        -11   -1    0    0    0    0 -0.00000000000E+00 -0.00000000000E+00 -0.50000000000E+03  0.50000000000E+03  0.00000000000E+00 0.  1.
          5    1    1    2  501    0 -0.23425231180E+02 -0.14809720697E+03  0.47696581202E+03  0.50000000000E+03  0.47000000000E+01 0. -1.
         -5    1    1    2    0  501  0.23425231180E+02  0.14809720697E+03 -0.47696581202E+03  0.50000000000E+03  0.47000000000E+01 0.  1.
</event>
<event>
 4    1  0.4903958E-004  0.1000000E+04  0.7546771E-02  0.8684367E-01
         11   -1    0    0    0    0  0.00000000000E+00  0.00000000000E+00  0.50000000000E+03  0.50000000000E+03  0.00000000000E+00 0. -1.
        -11   -1    0    0    0    0 -0.00000000000E+00 -0.00000000000E+00 -0.50000000000E+03  0.50000000000E+03  0.00000000000E+00 0.  1.
          5    1    1    2  501    0  0.25355317701E+03 -0.54348101048E+02  0.42747512248E+03  0.50000000000E+03  0.47000000000E+01 0. -1.
         -5    1    1    2    0  501 -0.25355317701E+03  0.54348101048E+02 -0.42747512248E+03  0.50000000000E+03  0.47000000000E+01 0.  1.
</event>
<event>
 4    1  0.4903958E-004  0.1000000E+04  0.7546771E-02  0.8684367E-01
         11   -1    0    0    0    0  0.00000000000E+00  0.00000000000E+00  0.50000000000E+03  0.50000000000E+03  0.00000000000E+00 0. -1.
        -11   -1    0    0    0    0 -0.00000000000E+00 -0.00000000000E+00 -0.50000000000E+03  0.50000000000E+03  0.00000000000E+00 0.  1.
          5    1    1    2  501    0  0.25343555243E+03  0.75092622515E+01  0.43091987857E+03  0.50000000000E+03  0.47000000000E+01 0. -1.
         -5    1    1    2    0  501 -0.25343555243E+03 -0.75092622515E+01 -0.43091987857E+03  0.50000000000E+03  0.47000000000E+01 0.  1.
</event>
<event>
 4    1  0.4903958E-004  0.1000000E+04  0.7546771E-02  0.8684367E-01
         11   -1    0    0    0    0  0.00000000000E+00  0.00000000000E+00  0.50000000000E+03  0.50000000000E+03  0.00000000000E+00 0. -1.
        -11   -1    0    0    0    0 -0.00000000000E+00 -0.00000000000E+00 -0.50000000000E+03  0.50000000000E+03  0.00000000000E+00 0.  1.
          5    1    1    2  501    0  0.21536555155E+03  0.26079373429E+03  0.36821490649E+03  0.50000000000E+03  0.47000000000E+01 0. -1.
         -5    1    1    2    0  501 -0.21536555155E+03 -0.26079373429E+03 -0.36821490649E+03  0.50000000000E+03  0.47000000000E+01 0.  1.
</event>
<event>
 4    1  0.4903958E-004  0.1000000E+04  0.7546771E-02  0.8684367E-01
         11   -1    0    0    0    0  0.00000000000E+00  0.00000000000E+00  0.50000000000E+03  0.50000000000E+03  0.00000000000E+00 0.  1.
        -11   -1    0    0    0    0 -0.00000000000E+00 -0.00000000000E+00 -0.50000000000E+03  0.50000000000E+03  0.00000000000E+00 0. -1.
          5    1    1    2  501    0  0.11586804097E+03  0.27575776768E+03  0.40063719329E+03  0.50000000000E+03  0.47000000000E+01 0.  1.
         -5    1    1    2    0  501 -0.11586804097E+03 -0.27575776768E+03 -0.40063719329E+03  0.50000000000E+03  0.47000000000E+01 0. -1.
</event>
<event>
 4    1  0.4903958E-004  0.1000000E+04  0.7546771E-02  0.8684367E-01
         11   -1    0    0    0    0  0.00000000000E+00  0.00000000000E+00  0.50000000000E+03  0.50000000000E+03  0.00000000000E+00 0. -1.
        -11   -1    0    0    0    0 -0.00000000000E+00 -0.00000000000E+00 -0.50000000000E+03  0.50000000000E+03  0.00000000000E+00 0.  1.
          5    1    1    2  501    0 -0.26901374348E+03 -0.35357620630E+02  0.41995160969E+03  0.50000000000E+03  0.47000000000E+01 0. -1.
         -5    1    1    2    0  501  0.26901374348E+03  0.35357620630E+02 -0.41995160969E+03  0.50000000000E+03  0.47000000000E+01 0.  1.
</event>
<event>
 4    1  0.4903958E-004  0.1000000E+04  0.7546771E-02  0.8684367E-01
         11   -1    0    0    0    0  0.00000000000E+00  0.00000000000E+00  0.50000000000E+03  0.50000000000E+03  0.00000000000E+00 0. -1.
        -11   -1    0    0    0    0 -0.00000000000E+00 -0.00000000000E+00 -0.50000000000E+03  0.50000000000E+03  0.00000000000E+00 0.  1.
          5    1    1    2  501    0  0.31793783284E+02  0.31425185968E+03  0.38757300478E+03  0.50000000000E+03  0.47000000000E+01 0. -1.
         -5    1    1    2    0  501 -0.31793783284E+02 -0.31425185968E+03 -0.38757300478E+03  0.50000000000E+03  0.47000000000E+01 0.  1.
</event>
<event>
 4    1  0.4903958E-004  0.1000000E+04  0.7546771E-02  0.8684367E-01
         11   -1    0    0    0    0  0.00000000000E+00  0.00000000000E+00  0.50000000000E+03  0.50000000000E+03  0.00000000000E+00 0. -1.
        -11   -1    0    0    0    0 -0.00000000000E+00 -0.00000000000E+00 -0.50000000000E+03  0.50000000000E+03  0.00000000000E+00 0.  1.
          5    1    1    2  501    0 -0.39188042354E+03  0.12528573743E+03  0.28409703913E+03  0.50000000000E+03  0.47000000000E+01 0. -1.
         -5    1    1    2    0  501  0.39188042354E+03 -0.12528573743E+03 -0.28409703913E+03  0.50000000000E+03  0.47000000000E+01 0.  1.
</event>
<event>
 4    1  0.4903958E-004  0.1000000E+04  0.7546771E-02  0.8684367E-01
         11   -1    0    0    0    0  0.00000000000E+00  0.00000000000E+00  0.50000000000E+03  0.50000000000E+03  0.00000000000E+00 0. -1.
        -11   -1    0    0    0    0 -0.00000000000E+00 -0.00000000000E+00 -0.50000000000E+03  0.50000000000E+03  0.00000000000E+00 0.  1.
          5    1    1    2  501    0  0.28768418881E+03  0.21743823880E+03  0.34631824932E+03  0.50000000000E+03  0.47000000000E+01 0. -1.
         -5    1    1    2    0  501 -0.28768418881E+03 -0.21743823880E+03 -0.34631824932E+03  0.50000000000E+03  0.47000000000E+01 0.  1.
</event>
<event>
 4    1  0.4903958E-004  0.1000000E+04  0.7546771E-02  0.8684367E-01
         11   -1    0    0    0    0  0.00000000000E+00  0.00000000000E+00  0.50000000000E+03  0.50000000000E+03  0.00000000000E+00 0. -1.
        -11   -1    0    0    0    0 -0.00000000000E+00 -0.00000000000E+00 -0.50000000000E+03  0.50000000000E+03  0.00000000000E+00 0.  1.
          5    1    1    2  501    0 -0.16285790419E+03 -0.22078303557E+03  0.41798333011E+03  0.50000000000E+03  0.47000000000E+01 0. -1.
         -5    1    1    2    0  501  0.16285790419E+03  0.22078303557E+03 -0.41798333011E+03  0.50000000000E+03  0.47000000000E+01 0.  1.
</event>
<event>
 4    1  0.4903958E-004  0.1000000E+04  0.7546771E-02  0.8684367E-01
         11   -1    0    0    0    0  0.00000000000E+00  0.00000000000E+00  0.50000000000E+03  0.50000000000E+03  0.00000000000E+00 0. -1.
        -11   -1    0    0    0    0 -0.00000000000E+00 -0.00000000000E+00 -0.50000000000E+03  0.50000000000E+03  0.00000000000E+00 0.  1.
          5    1    1    2  501    0  0.30222674534E+03  0.17372666841E+02  0.39791342632E+03  0.50000000000E+03  0.47000000000E+01 0. -1.
         -5    1    1    2    0  501 -0.30222674534E+03 -0.17372666841E+02 -0.39791342632E+03  0.50000000000E+03  0.47000000000E+01 0.  1.
</event>
<event>
 4    1  0.4903958E-004  0.1000000E+04  0.7546771E-02  0.8684367E-01
         11   -1    0    0    0    0  0.00000000000E+00  0.00000000000E+00  0.50000000000E+03  0.50000000000E+03  0.00000000000E+00 0.  1.
        -11   -1    0    0    0    0 -0.00000000000E+00 -0.00000000000E+00 -0.50000000000E+03  0.50000000000E+03  0.00000000000E+00 0. -1.
          5    1    1    2  501    0 -0.63734887081E+02 -0.43182711047E+03  0.24380549795E+03  0.50000000000E+03  0.47000000000E+01 0.  1.
         -5    1    1    2    0  501  0.63734887081E+02  0.43182711047E+03 -0.24380549795E+03  0.50000000000E+03  0.47000000000E+01 0. -1.
</event>
<event>
 4    1  0.4903958E-004  0.1000000E+04  0.7546771E-02  0.8684367E-01
         11   -1    0    0    0    0  0.00000000000E+00  0.00000000000E+00  0.50000000000E+03  0.50000000000E+03  0.00000000000E+00 0. -1.
        -11   -1    0    0    0    0 -0.00000000000E+00 -0.00000000000E+00 -0.50000000000E+03  0.50000000000E+03  0.00000000000E+00 0.  1.
          5    1    1    2  501    0 -0.38451622010E+03  0.22338908406E+03  0.22852243566E+03  0.50000000000E+03  0.47000000000E+01 0. -1.
         -5    1    1    2    0  501  0.38451622010E+03 -0.22338908406E+03 -0.22852243566E+03  0.50000000000E+03  0.47000000000E+01 0.  1.
</event>
<event>
 4    1  0.4903958E-004  0.1000000E+04  0.7546771E-02  0.8684367E-01
         11   -1    0    0    0    0  0.00000000000E+00  0.00000000000E+00  0.50000000000E+03  0.50000000000E+03  0.00000000000E+00 0.  1.
        -11   -1    0    0    0    0 -0.00000000000E+00 -0.00000000000E+00 -0.50000000000E+03  0.50000000000E+03  0.00000000000E+00 0. -1.
          5    1    1    2  501    0  0.49530453240E+03 -0.25963010784E+02 -0.63065460102E+02  0.50000000000E+03  0.47000000000E+01 0.  1.
         -5    1    1    2    0  501 -0.49530453240E+03  0.25963010784E+02  0.63065460102E+02  0.50000000000E+03  0.47000000000E+01 0. -1.
</event>
<event>
 4    1  0.4903958E-004  0.1000000E+04  0.7546771E-02  0.8684367E-01
         11   -1    0    0    0    0  0.00000000000E+00  0.00000000000E+00  0.50000000000E+03  0.50000000000E+03  0.00000000000E+00 0. -1.
        -11   -1    0    0    0    0 -0.00000000000E+00 -0.00000000000E+00 -0.50000000000E+03  0.50000000000E+03  0.00000000000E+00 0.  1.
          5    1    1    2  501    0  0.96216388194E+02 -0.21886353071E+03  0.43911168462E+03  0.50000000000E+03  0.47000000000E+01 0. -1.
         -5    1    1    2    0  501 -0.96216388194E+02  0.21886353071E+03 -0.43911168462E+03  0.50000000000E+03  0.47000000000E+01 0.  1.
</event>
<event>
 4    1  0.4903958E-004  0.1000000E+04  0.7546771E-02  0.8684367E-01
         11   -1    0    0    0    0  0.00000000000E+00  0.00000000000E+00  0.50000000000E+03  0.50000000000E+03  0.00000000000E+00 0. -1.
        -11   -1    0    0    0    0 -0.00000000000E+00 -0.00000000000E+00 -0.50000000000E+03  0.50000000000E+03  0.00000000000E+00 0.  1.
          5    1    1    2  501    0  0.18784464710E+03 -0.33821261018E+02  0.46211299577E+03  0.50000000000E+03  0.47000000000E+01 0. -1.
         -5    1    1    2    0  501 -0.18784464710E+03  0.33821261018E+02 -0.46211299577E+03  0.50000000000E+03  0.47000000000E+01 0.  1.
</event>
<event>
 4    1  0.4903958E-004  0.1000000E+04  0.7546771E-02  0.8684367E-01
         11   -1    0    0    0    0  0.00000000000E+00  0.00000000000E+00  0.50000000000E+03  0.50000000000E+03  0.00000000000E+00 0. -1.
        -11   -1    0    0    0    0 -0.00000000000E+00 -0.00000000000E+00 -0.50000000000E+03  0.50000000000E+03  0.00000000000E+00 0.  1.
          5    1    1    2  501    0  0.38781928210E+03  0.15225768345E+03  0.27639050682E+03  0.50000000000E+03  0.47000000000E+01 0. -1.
         -5    1    1    2    0  501 -0.38781928210E+03 -0.15225768345E+03 -0.27639050682E+03  0.50000000000E+03  0.47000000000E+01 0.  1.
</event>
<event>
 4    1  0.4903958E-004  0.1000000E+04  0.7546771E-02  0.8684367E-01
         11   -1    0    0    0    0  0.00000000000E+00  0.00000000000E+00  0.50000000000E+03  0.50000000000E+03  0.00000000000E+00 0. -1.
        -11   -1    0    0    0    0 -0.00000000000E+00 -0.00000000000E+00 -0.50000000000E+03  0.50000000000E+03  0.00000000000E+00 0.  1.
          5    1    1    2  501    0 -0.34691031622E+03  0.20788844454E+03  0.29396179535E+03  0.50000000000E+03  0.47000000000E+01 0. -1.
         -5    1    1    2    0  501  0.34691031622E+03 -0.20788844454E+03 -0.29396179535E+03  0.50000000000E+03  0.47000000000E+01 0.  1.
</event>
<event>
 4    1  0.4903958E-004  0.1000000E+04  0.7546771E-02  0.8684367E-01
         11   -1    0    0    0    0  0.00000000000E+00  0.00000000000E+00  0.50000000000E+03  0.50000000000E+03  0.00000000000E+00 0. -1.
        -11   -1    0    0    0    0 -0.00000000000E+00 -0.00000000000E+00 -0.50000000000E+03  0.50000000000E+03  0.00000000000E+00 0.  1.
          5    1    1    2  501    0 -0.16540174894E+03 -0.42537301275E+02  0.46990504301E+03  0.50000000000E+03  0.47000000000E+01 0. -1.
         -5    1    1    2    0  501  0.16540174894E+03  0.42537301275E+02 -0.46990504301E+03  0.50000000000E+03  0.47000000000E+01 0.  1.
</event>
<event>
 4    1  0.4903958E-004  0.1000000E+04  0.7546771E-02  0.8684367E-01
         11   -1    0    0    0    0  0.00000000000E+00  0.00000000000E+00  0.50000000000E+03  0.50000000000E+03  0.00000000000E+00 0. -1.
        -11   -1    0    0    0    0 -0.00000000000E+00 -0.00000000000E+00 -0.50000000000E+03  0.50000000000E+03  0.00000000000E+00 0.  1.
          5    1    1    2  501    0  0.37122271131E+03 -0.66321496208E+02  0.32828808652E+03  0.50000000000E+03  0.47000000000E+01 0. -1.
         -5    1    1    2    0  501 -0.37122271131E+03  0.66321496208E+02 -0.32828808652E+03  0.50000000000E+03  0.47000000000E+01 0.  1.
</event>
<event>
 4    1  0.4903958E-004  0.1000000E+04  0.7546771E-02  0.8684367E-01
         11   -1    0    0    0    0  0.00000000000E+00  0.00000000000E+00  0.50000000000E+03  0.50000000000E+03  0.00000000000E+00 0. -1.
        -11   -1    0    0    0    0 -0.00000000000E+00 -0.00000000000E+00 -0.50000000000E+03  0.50000000000E+03  0.00000000000E+00 0.  1.
          5    1    1    2  501    0  0.48013266741E+03  0.10525013655E+03 -0.91503772843E+02  0.50000000000E+03  0.47000000000E+01 0. -1.
         -5    1    1    2    0  501 -0.48013266741E+03 -0.10525013655E+03  0.91503772843E+02  0.50000000000E+03  0.47000000000E+01 0.  1.
</event>
<event>
 4    1  0.4903958E-004  0.1000000E+04  0.7546771E-02  0.8684367E-01
         11   -1    0    0    0    0  0.00000000000E+00  0.00000000000E+00  0.50000000000E+03  0.50000000000E+03  0.00000000000E+00 0. -1.
        -11   -1    0    0    0    0 -0.00000000000E+00 -0.00000000000E+00 -0.50000000000E+03  0.50000000000E+03  0.00000000000E+00 0.  1.
          5    1    1    2  501    0 -0.12224717925E+03 -0.27471173650E+02  0.48402362730E+03  0.50000000000E+03  0.47000000000E+01 0. -1.
         -5    1    1    2    0  501  0.12224717925E+03  0.27471173650E+02 -0.48402362730E+03  0.50000000000E+03  0.47000000000E+01 0.  1.
</event>
<event>
 4    1  0.4903958E-004  0.1000000E+04  0.7546771E-02  0.8684367E-01
         11   -1    0    0    0    0  0.00000000000E+00  0.00000000000E+00  0.50000000000E+03  0.50000000000E+03  0.00000000000E+00 0. -1.
        -11   -1    0    0    0    0 -0.00000000000E+00 -0.00000000000E+00 -0.50000000000E+03  0.50000000000E+03  0.00000000000E+00 0.  1.
          5    1    1    2  501    0 -0.22695719779E+03  0.19931825873E+03  0.39842260492E+03  0.50000000000E+03  0.47000000000E+01 0. -1.
         -5    1    1    2    0  501  0.22695719779E+03 -0.19931825873E+03 -0.39842260492E+03  0.50000000000E+03  0.47000000000E+01 0.  1.
</event>
<event>
 4    1  0.4903958E-004  0.1000000E+04  0.7546771E-02  0.8684367E-01
         11   -1    0    0    0    0  0.00000000000E+00  0.00000000000E+00  0.50000000000E+03  0.50000000000E+03  0.00000000000E+00 0. -1.
        -11   -1    0    0    0    0 -0.00000000000E+00 -0.00000000000E+00 -0.50000000000E+03  0.50000000000E+03  0.00000000000E+00 0.  1.
          5    1    1    2  501    0  0.14876131911E+03  0.29878999512E+03  0.37225329918E+03  0.50000000000E+03  0.47000000000E+01 0. -1.
         -5    1    1    2    0  501 -0.14876131911E+03 -0.29878999512E+03 -0.37225329918E+03  0.50000000000E+03  0.47000000000E+01 0.  1.
</event>
<event>
 4    1  0.4903958E-004  0.1000000E+04  0.7546771E-02  0.8684367E-01
         11   -1    0    0    0    0  0.00000000000E+00  0.00000000000E+00  0.50000000000E+03  0.50000000000E+03  0.00000000000E+00 0. -1.
        -11   -1    0    0    0    0 -0.00000000000E+00 -0.00000000000E+00 -0.50000000000E+03  0.50000000000E+03  0.00000000000E+00 0.  1.
          5    1    1    2  501    0 -0.45096867399E+02  0.11890061194E+03  0.48353575569E+03  0.50000000000E+03  0.47000000000E+01 0. -1.
         -5    1    1    2    0  501  0.45096867399E+02 -0.11890061194E+03 -0.48353575569E+03  0.50000000000E+03  0.47000000000E+01 0.  1.
</event>
<event>
 4    1  0.4903958E-004  0.1000000E+04  0.7546771E-02  0.8684367E-01
         11   -1    0    0    0    0  0.00000000000E+00  0.00000000000E+00  0.50000000000E+03  0.50000000000E+03  0.00000000000E+00 0.  1.
        -11   -1    0    0    0    0 -0.00000000000E+00 -0.00000000000E+00 -0.50000000000E+03  0.50000000000E+03  0.00000000000E+00 0. -1.
          5    1    1    2  501    0 -0.36521885676E+03  0.23793189802E+03  0.24491122589E+03  0.50000000000E+03  0.47000000000E+01 0.  1.
         -5    1    1    2    0  501  0.36521885676E+03 -0.23793189802E+03 -0.24491122589E+03  0.50000000000E+03  0.47000000000E+01 0. -1.
</event>
<event>
 4    1  0.4903958E-004  0.1000000E+04  0.7546771E-02  0.8684367E-01
         11   -1    0    0    0    0  0.00000000000E+00  0.00000000000E+00  0.50000000000E+03  0.50000000000E+03  0.00000000000E+00 0. -1.
        -11   -1    0    0    0    0 -0.00000000000E+00 -0.00000000000E+00 -0.50000000000E+03  0.50000000000E+03  0.00000000000E+00 0.  1.
          5    1    1    2  501    0 -0.38562400699E+03  0.31083770372E+03  0.68205257714E+02  0.50000000000E+03  0.47000000000E+01 0.  1.
         -5    1    1    2    0  501  0.38562400699E+03 -0.31083770372E+03 -0.68205257714E+02  0.50000000000E+03  0.47000000000E+01 0. -1.
</event>
<event>
 4    1  0.4903958E-004  0.1000000E+04  0.7546771E-02  0.8684367E-01
         11   -1    0    0    0    0  0.00000000000E+00  0.00000000000E+00  0.50000000000E+03  0.50000000000E+03  0.00000000000E+00 0. -1.
        -11   -1    0    0    0    0 -0.00000000000E+00 -0.00000000000E+00 -0.50000000000E+03  0.50000000000E+03  0.00000000000E+00 0.  1.
          5    1    1    2  501    0 -0.17573402290E+03 -0.17773014996E+03  0.43302131239E+03  0.50000000000E+03  0.47000000000E+01 0. -1.
         -5    1    1    2    0  501  0.17573402290E+03  0.17773014996E+03 -0.43302131239E+03  0.50000000000E+03  0.47000000000E+01 0.  1.
</event>
<event>
 4    1  0.4903958E-004  0.1000000E+04  0.7546771E-02  0.8684367E-01
         11   -1    0    0    0    0  0.00000000000E+00  0.00000000000E+00  0.50000000000E+03  0.50000000000E+03  0.00000000000E+00 0.  1.
        -11   -1    0    0    0    0 -0.00000000000E+00 -0.00000000000E+00 -0.50000000000E+03  0.50000000000E+03  0.00000000000E+00 0. -1.
          5    1    1    2  501    0 -0.74890621132E+02  0.46665786758E+03  0.16309426566E+03  0.50000000000E+03  0.47000000000E+01 0.  1.
         -5    1    1    2    0  501  0.74890621132E+02 -0.46665786758E+03 -0.16309426566E+03  0.50000000000E+03  0.47000000000E+01 0. -1.
</event>
<event>
 4    1  0.4903958E-004  0.1000000E+04  0.7546771E-02  0.8684367E-01
         11   -1    0    0    0    0  0.00000000000E+00  0.00000000000E+00  0.50000000000E+03  0.50000000000E+03  0.00000000000E+00 0. -1.
        -11   -1    0    0    0    0 -0.00000000000E+00 -0.00000000000E+00 -0.50000000000E+03  0.50000000000E+03  0.00000000000E+00 0.  1.
          5    1    1    2  501    0  0.45457011716E+03  0.14951170919E+03  0.14487983779E+03  0.50000000000E+03  0.47000000000E+01 0. -1.
         -5    1    1    2    0  501 -0.45457011716E+03 -0.14951170919E+03 -0.14487983779E+03  0.50000000000E+03  0.47000000000E+01 0.  1.
</event>
<event>
 4    1  0.4903958E-004  0.1000000E+04  0.7546771E-02  0.8684367E-01
         11   -1    0    0    0    0  0.00000000000E+00  0.00000000000E+00  0.50000000000E+03  0.50000000000E+03  0.00000000000E+00 0. -1.
        -11   -1    0    0    0    0 -0.00000000000E+00 -0.00000000000E+00 -0.50000000000E+03  0.50000000000E+03  0.00000000000E+00 0.  1.
          5    1    1    2  501    0  0.18031755280E+03  0.33559157977E+02  0.46512070806E+03  0.50000000000E+03  0.47000000000E+01 0. -1.
         -5    1    1    2    0  501 -0.18031755280E+03 -0.33559157977E+02 -0.46512070806E+03  0.50000000000E+03  0.47000000000E+01 0.  1.
</event>
<event>
 4    1  0.4903958E-004  0.1000000E+04  0.7546771E-02  0.8684367E-01
         11   -1    0    0    0    0  0.00000000000E+00  0.00000000000E+00  0.50000000000E+03  0.50000000000E+03  0.00000000000E+00 0. -1.
        -11   -1    0    0    0    0 -0.00000000000E+00 -0.00000000000E+00 -0.50000000000E+03  0.50000000000E+03  0.00000000000E+00 0.  1.
          5    1    1    2  501    0  0.52419336180E+01  0.39558156310E+03  0.30572153845E+03  0.50000000000E+03  0.47000000000E+01 0. -1.
         -5    1    1    2    0  501 -0.52419336180E+01 -0.39558156310E+03 -0.30572153845E+03  0.50000000000E+03  0.47000000000E+01 0.  1.
</event>
<event>
 4    1  0.4903958E-004  0.1000000E+04  0.7546771E-02  0.8684367E-01
         11   -1    0    0    0    0  0.00000000000E+00  0.00000000000E+00  0.50000000000E+03  0.50000000000E+03  0.00000000000E+00 0. -1.
        -11   -1    0    0    0    0 -0.00000000000E+00 -0.00000000000E+00 -0.50000000000E+03  0.50000000000E+03  0.00000000000E+00 0.  1.
          5    1    1    2  501    0  0.57844943298E+00  0.47844334189E+03  0.14515351873E+03  0.50000000000E+03  0.47000000000E+01 0. -1.
         -5    1    1    2    0  501 -0.57844943298E+00 -0.47844334189E+03 -0.14515351873E+03  0.50000000000E+03  0.47000000000E+01 0.  1.
</event>
<event>
 4    1  0.4903958E-004  0.1000000E+04  0.7546771E-02  0.8684367E-01
         11   -1    0    0    0    0  0.00000000000E+00  0.00000000000E+00  0.50000000000E+03  0.50000000000E+03  0.00000000000E+00 0. -1.
        -11   -1    0    0    0    0 -0.00000000000E+00 -0.00000000000E+00 -0.50000000000E+03  0.50000000000E+03  0.00000000000E+00 0.  1.
          5    1    1    2  501    0 -0.47926921099E+03  0.10536054831E+03  0.95802339533E+02  0.50000000000E+03  0.47000000000E+01 0. -1.
         -5    1    1    2    0  501  0.47926921099E+03 -0.10536054831E+03 -0.95802339533E+02  0.50000000000E+03  0.47000000000E+01 0.  1.
</event>
<event>
 4    1  0.4903958E-004  0.1000000E+04  0.7546771E-02  0.8684367E-01
         11   -1    0    0    0    0  0.00000000000E+00  0.00000000000E+00  0.50000000000E+03  0.50000000000E+03  0.00000000000E+00 0.  1.
        -11   -1    0    0    0    0 -0.00000000000E+00 -0.00000000000E+00 -0.50000000000E+03  0.50000000000E+03  0.00000000000E+00 0. -1.
          5    1    1    2  501    0 -0.37141509252E+03  0.22240562957E+03  0.25012891674E+03  0.50000000000E+03  0.47000000000E+01 0.  1.
         -5    1    1    2    0  501  0.37141509252E+03 -0.22240562957E+03 -0.25012891674E+03  0.50000000000E+03  0.47000000000E+01 0. -1.
</event>
<event>
 4    1  0.4903958E-004  0.1000000E+04  0.7546771E-02  0.8684367E-01
         11   -1    0    0    0    0  0.00000000000E+00  0.00000000000E+00  0.50000000000E+03  0.50000000000E+03  0.00000000000E+00 0. -1.
        -11   -1    0    0    0    0 -0.00000000000E+00 -0.00000000000E+00 -0.50000000000E+03  0.50000000000E+03  0.00000000000E+00 0.  1.
          5    1    1    2  501    0 -0.11321518093E+03  0.44781843631E+03  0.19136060438E+03  0.50000000000E+03  0.47000000000E+01 0. -1.
         -5    1    1    2    0  501  0.11321518093E+03 -0.44781843631E+03 -0.19136060438E+03  0.50000000000E+03  0.47000000000E+01 0.  1.
</event>
<event>
 4    1  0.4903958E-004  0.1000000E+04  0.7546771E-02  0.8684367E-01
         11   -1    0    0    0    0  0.00000000000E+00  0.00000000000E+00  0.50000000000E+03  0.50000000000E+03  0.00000000000E+00 0. -1.
        -11   -1    0    0    0    0 -0.00000000000E+00 -0.00000000000E+00 -0.50000000000E+03  0.50000000000E+03  0.00000000000E+00 0.  1.
          5    1    1    2  501    0 -0.33029997761E+02 -0.43613942984E+03  0.24221751998E+03  0.50000000000E+03  0.47000000000E+01 0. -1.
         -5    1    1    2    0  501  0.33029997761E+02  0.43613942984E+03 -0.24221751998E+03  0.50000000000E+03  0.47000000000E+01 0.  1.
</event>
<event>
 4    1  0.4903958E-004  0.1000000E+04  0.7546771E-02  0.8684367E-01
         11   -1    0    0    0    0  0.00000000000E+00  0.00000000000E+00  0.50000000000E+03  0.50000000000E+03  0.00000000000E+00 0. -1.
        -11   -1    0    0    0    0 -0.00000000000E+00 -0.00000000000E+00 -0.50000000000E+03  0.50000000000E+03  0.00000000000E+00 0.  1.
          5    1    1    2  501    0  0.46714481865E+03  0.94814031560E+02  0.15087719454E+03  0.50000000000E+03  0.47000000000E+01 0. -1.
         -5    1    1    2    0  501 -0.46714481865E+03 -0.94814031560E+02 -0.15087719454E+03  0.50000000000E+03  0.47000000000E+01 0.  1.
</event>
<event>
 4    1  0.4903958E-004  0.1000000E+04  0.7546771E-02  0.8684367E-01
         11   -1    0    0    0    0  0.00000000000E+00  0.00000000000E+00  0.50000000000E+03  0.50000000000E+03  0.00000000000E+00 0. -1.
        -11   -1    0    0    0    0 -0.00000000000E+00 -0.00000000000E+00 -0.50000000000E+03  0.50000000000E+03  0.00000000000E+00 0.  1.
          5    1    1    2  501    0 -0.15505871076E+03 -0.47294658560E+03 -0.47499825107E+02  0.50000000000E+03  0.47000000000E+01 0. -1.
         -5    1    1    2    0  501  0.15505871076E+03  0.47294658560E+03  0.47499825107E+02  0.50000000000E+03  0.47000000000E+01 0.  1.
</event>
<event>
 4    1  0.4903958E-004  0.1000000E+04  0.7546771E-02  0.8684367E-01
         11   -1    0    0    0    0  0.00000000000E+00  0.00000000000E+00  0.50000000000E+03  0.50000000000E+03  0.00000000000E+00 0. -1.
        -11   -1    0    0    0    0 -0.00000000000E+00 -0.00000000000E+00 -0.50000000000E+03  0.50000000000E+03  0.00000000000E+00 0.  1.
          5    1    1    2  501    0  0.28387166678E+03 -0.26339127320E+03  0.31625910896E+03  0.50000000000E+03  0.47000000000E+01 0. -1.
         -5    1    1    2    0  501 -0.28387166678E+03  0.26339127320E+03 -0.31625910896E+03  0.50000000000E+03  0.47000000000E+01 0.  1.
</event>
<event>
 4    1  0.4903958E-004  0.1000000E+04  0.7546771E-02  0.8684367E-01
         11   -1    0    0    0    0  0.00000000000E+00  0.00000000000E+00  0.50000000000E+03  0.50000000000E+03  0.00000000000E+00 0.  1.
        -11   -1    0    0    0    0 -0.00000000000E+00 -0.00000000000E+00 -0.50000000000E+03  0.50000000000E+03  0.00000000000E+00 0. -1.
          5    1    1    2  501    0 -0.30384572264E+02 -0.47586760853E+03  0.15034861796E+03  0.50000000000E+03  0.47000000000E+01 0.  1.
         -5    1    1    2    0  501  0.30384572264E+02  0.47586760853E+03 -0.15034861796E+03  0.50000000000E+03  0.47000000000E+01 0. -1.
</event>
<event>
 4    1  0.4903958E-004  0.1000000E+04  0.7546771E-02  0.8684367E-01
         11   -1    0    0    0    0  0.00000000000E+00  0.00000000000E+00  0.50000000000E+03  0.50000000000E+03  0.00000000000E+00 0. -1.
        -11   -1    0    0    0    0 -0.00000000000E+00 -0.00000000000E+00 -0.50000000000E+03  0.50000000000E+03  0.00000000000E+00 0.  1.
          5    1    1    2  501    0 -0.18277790493E+03 -0.14003844693E+03  0.44380105999E+03  0.50000000000E+03  0.47000000000E+01 0. -1.
         -5    1    1    2    0  501  0.18277790493E+03  0.14003844693E+03 -0.44380105999E+03  0.50000000000E+03  0.47000000000E+01 0.  1.
</event>
<event>
 4    1  0.4903958E-004  0.1000000E+04  0.7546771E-02  0.8684367E-01
         11   -1    0    0    0    0  0.00000000000E+00  0.00000000000E+00  0.50000000000E+03  0.50000000000E+03  0.00000000000E+00 0. -1.
        -11   -1    0    0    0    0 -0.00000000000E+00 -0.00000000000E+00 -0.50000000000E+03  0.50000000000E+03  0.00000000000E+00 0.  1.
          5    1    1    2  501    0  0.34791388280E+03 -0.52678716146E+02  0.35518839088E+03  0.50000000000E+03  0.47000000000E+01 0. -1.
         -5    1    1    2    0  501 -0.34791388280E+03  0.52678716146E+02 -0.35518839088E+03  0.50000000000E+03  0.47000000000E+01 0.  1.
</event>
<event>
 4    1  0.4903958E-004  0.1000000E+04  0.7546771E-02  0.8684367E-01
         11   -1    0    0    0    0  0.00000000000E+00  0.00000000000E+00  0.50000000000E+03  0.50000000000E+03  0.00000000000E+00 0. -1.
        -11   -1    0    0    0    0 -0.00000000000E+00 -0.00000000000E+00 -0.50000000000E+03  0.50000000000E+03  0.00000000000E+00 0.  1.
          5    1    1    2  501    0 -0.92283861807E+02  0.35885343138E+03  0.33568707695E+03  0.50000000000E+03  0.47000000000E+01 0. -1.
         -5    1    1    2    0  501  0.92283861807E+02 -0.35885343138E+03 -0.33568707695E+03  0.50000000000E+03  0.47000000000E+01 0.  1.
</event>
<event>
 4    1  0.4903958E-004  0.1000000E+04  0.7546771E-02  0.8684367E-01
         11   -1    0    0    0    0  0.00000000000E+00  0.00000000000E+00  0.50000000000E+03  0.50000000000E+03  0.00000000000E+00 0. -1.
        -11   -1    0    0    0    0 -0.00000000000E+00 -0.00000000000E+00 -0.50000000000E+03  0.50000000000E+03  0.00000000000E+00 0.  1.
          5    1    1    2  501    0  0.11715760343E+03  0.40390184358E+03  0.27039842216E+03  0.50000000000E+03  0.47000000000E+01 0. -1.
         -5    1    1    2    0  501 -0.11715760343E+03 -0.40390184358E+03 -0.27039842216E+03  0.50000000000E+03  0.47000000000E+01 0.  1.
</event>
<event>
 4    1  0.4903958E-004  0.1000000E+04  0.7546771E-02  0.8684367E-01
         11   -1    0    0    0    0  0.00000000000E+00  0.00000000000E+00  0.50000000000E+03  0.50000000000E+03  0.00000000000E+00 0. -1.
        -11   -1    0    0    0    0 -0.00000000000E+00 -0.00000000000E+00 -0.50000000000E+03  0.50000000000E+03  0.00000000000E+00 0.  1.
          5    1    1    2  501    0 -0.14997843596E+03  0.22685388172E+03  0.41954939530E+03  0.50000000000E+03  0.47000000000E+01 0. -1.
         -5    1    1    2    0  501  0.14997843596E+03 -0.22685388172E+03 -0.41954939530E+03  0.50000000000E+03  0.47000000000E+01 0.  1.
</event>
<event>
 4    1  0.4903958E-004  0.1000000E+04  0.7546771E-02  0.8684367E-01
         11   -1    0    0    0    0  0.00000000000E+00  0.00000000000E+00  0.50000000000E+03  0.50000000000E+03  0.00000000000E+00 0. -1.
        -11   -1    0    0    0    0 -0.00000000000E+00 -0.00000000000E+00 -0.50000000000E+03  0.50000000000E+03  0.00000000000E+00 0.  1.
          5    1    1    2  501    0  0.34705869765E+03 -0.35868107882E+03 -0.29598210863E+02  0.50000000000E+03  0.47000000000E+01 0. -1.
         -5    1    1    2    0  501 -0.34705869765E+03  0.35868107882E+03  0.29598210863E+02  0.50000000000E+03  0.47000000000E+01 0.  1.
</event>
<event>
 4    1  0.4903958E-004  0.1000000E+04  0.7546771E-02  0.8684367E-01
         11   -1    0    0    0    0  0.00000000000E+00  0.00000000000E+00  0.50000000000E+03  0.50000000000E+03  0.00000000000E+00 0.  1.
        -11   -1    0    0    0    0 -0.00000000000E+00 -0.00000000000E+00 -0.50000000000E+03  0.50000000000E+03  0.00000000000E+00 0. -1.
          5    1    1    2  501    0  0.35493776809E+03  0.21513090852E+03  0.27877550642E+03  0.50000000000E+03  0.47000000000E+01 0.  1.
         -5    1    1    2    0  501 -0.35493776809E+03 -0.21513090852E+03 -0.27877550642E+03  0.50000000000E+03  0.47000000000E+01 0. -1.
</event>
<event>
 4    1  0.4903958E-004  0.1000000E+04  0.7546771E-02  0.8684367E-01
         11   -1    0    0    0    0  0.00000000000E+00  0.00000000000E+00  0.50000000000E+03  0.50000000000E+03  0.00000000000E+00 0.  1.
        -11   -1    0    0    0    0 -0.00000000000E+00 -0.00000000000E+00 -0.50000000000E+03  0.50000000000E+03  0.00000000000E+00 0. -1.
          5    1    1    2  501    0  0.19781845236E+03 -0.24950701083E+02  0.45850107134E+03  0.50000000000E+03  0.47000000000E+01 0.  1.
         -5    1    1    2    0  501 -0.19781845236E+03  0.24950701083E+02 -0.45850107134E+03  0.50000000000E+03  0.47000000000E+01 0. -1.
</event>
<event>
 4    1  0.4903958E-004  0.1000000E+04  0.7546771E-02  0.8684367E-01
         11   -1    0    0    0    0  0.00000000000E+00  0.00000000000E+00  0.50000000000E+03  0.50000000000E+03  0.00000000000E+00 0. -1.
        -11   -1    0    0    0    0 -0.00000000000E+00 -0.00000000000E+00 -0.50000000000E+03  0.50000000000E+03  0.00000000000E+00 0.  1.
          5    1    1    2  501    0  0.15751071393E+03 -0.38993675842E+03  0.27040268015E+03  0.50000000000E+03  0.47000000000E+01 0. -1.
         -5    1    1    2    0  501 -0.15751071393E+03  0.38993675842E+03 -0.27040268015E+03  0.50000000000E+03  0.47000000000E+01 0.  1.
</event>
<event>
 4    1  0.4903958E-004  0.1000000E+04  0.7546771E-02  0.8684367E-01
         11   -1    0    0    0    0  0.00000000000E+00  0.00000000000E+00  0.50000000000E+03  0.50000000000E+03  0.00000000000E+00 0.  1.
        -11   -1    0    0    0    0 -0.00000000000E+00 -0.00000000000E+00 -0.50000000000E+03  0.50000000000E+03  0.00000000000E+00 0. -1.
          5    1    1    2  501    0 -0.13668186314E+03  0.30652747051E+03  0.37058991906E+03  0.50000000000E+03  0.47000000000E+01 0.  1.
         -5    1    1    2    0  501  0.13668186314E+03 -0.30652747051E+03 -0.37058991906E+03  0.50000000000E+03  0.47000000000E+01 0. -1.
</event>
<event>
 4    1  0.4903958E-004  0.1000000E+04  0.7546771E-02  0.8684367E-01
         11   -1    0    0    0    0  0.00000000000E+00  0.00000000000E+00  0.50000000000E+03  0.50000000000E+03  0.00000000000E+00 0. -1.
        -11   -1    0    0    0    0 -0.00000000000E+00 -0.00000000000E+00 -0.50000000000E+03  0.50000000000E+03  0.00000000000E+00 0.  1.
          5    1    1    2  501    0 -0.17997993339E+03  0.18155184505E+03  0.42967902106E+03  0.50000000000E+03  0.47000000000E+01 0. -1.
         -5    1    1    2    0  501  0.17997993339E+03 -0.18155184505E+03 -0.42967902106E+03  0.50000000000E+03  0.47000000000E+01 0.  1.
</event>
<event>
 4    1  0.4903958E-004  0.1000000E+04  0.7546771E-02  0.8684367E-01
         11   -1    0    0    0    0  0.00000000000E+00  0.00000000000E+00  0.50000000000E+03  0.50000000000E+03  0.00000000000E+00 0. -1.
        -11   -1    0    0    0    0 -0.00000000000E+00 -0.00000000000E+00 -0.50000000000E+03  0.50000000000E+03  0.00000000000E+00 0.  1.
          5    1    1    2  501    0 -0.42351280190E+03 -0.21594723662E+03  0.15485996133E+03  0.50000000000E+03  0.47000000000E+01 0. -1.
         -5    1    1    2    0  501  0.42351280190E+03  0.21594723662E+03 -0.15485996133E+03  0.50000000000E+03  0.47000000000E+01 0.  1.
</event>
<event>
 4    1  0.4903958E-004  0.1000000E+04  0.7546771E-02  0.8684367E-01
         11   -1    0    0    0    0  0.00000000000E+00  0.00000000000E+00  0.50000000000E+03  0.50000000000E+03  0.00000000000E+00 0. -1.
        -11   -1    0    0    0    0 -0.00000000000E+00 -0.00000000000E+00 -0.50000000000E+03  0.50000000000E+03  0.00000000000E+00 0.  1.
          5    1    1    2  501    0  0.24585487392E+03 -0.34198370774E+03  0.26940756228E+03  0.50000000000E+03  0.47000000000E+01 0. -1.
         -5    1    1    2    0  501 -0.24585487392E+03  0.34198370774E+03 -0.26940756228E+03  0.50000000000E+03  0.47000000000E+01 0.  1.
</event>
<event>
 4    1  0.4903958E-004  0.1000000E+04  0.7546771E-02  0.8684367E-01
         11   -1    0    0    0    0  0.00000000000E+00  0.00000000000E+00  0.50000000000E+03  0.50000000000E+03  0.00000000000E+00 0. -1.
        -11   -1    0    0    0    0 -0.00000000000E+00 -0.00000000000E+00 -0.50000000000E+03  0.50000000000E+03  0.00000000000E+00 0.  1.
          5    1    1    2  501    0  0.13406135992E+03 -0.20506236522E+03  0.43583814444E+03  0.50000000000E+03  0.47000000000E+01 0. -1.
         -5    1    1    2    0  501 -0.13406135992E+03  0.20506236522E+03 -0.43583814444E+03  0.50000000000E+03  0.47000000000E+01 0.  1.
</event>
<event>
 4    1  0.4903958E-004  0.1000000E+04  0.7546771E-02  0.8684367E-01
         11   -1    0    0    0    0  0.00000000000E+00  0.00000000000E+00  0.50000000000E+03  0.50000000000E+03  0.00000000000E+00 0. -1.
        -11   -1    0    0    0    0 -0.00000000000E+00 -0.00000000000E+00 -0.50000000000E+03  0.50000000000E+03  0.00000000000E+00 0.  1.
          5    1    1    2  501    0 -0.60589320969E+01 -0.24919890992E+03  0.43340639432E+03  0.50000000000E+03  0.47000000000E+01 0. -1.
         -5    1    1    2    0  501  0.60589320969E+01  0.24919890992E+03 -0.43340639432E+03  0.50000000000E+03  0.47000000000E+01 0.  1.
</event>
<event>
 4    1  0.4903958E-004  0.1000000E+04  0.7546771E-02  0.8684367E-01
         11   -1    0    0    0    0  0.00000000000E+00  0.00000000000E+00  0.50000000000E+03  0.50000000000E+03  0.00000000000E+00 0. -1.
        -11   -1    0    0    0    0 -0.00000000000E+00 -0.00000000000E+00 -0.50000000000E+03  0.50000000000E+03  0.00000000000E+00 0.  1.
          5    1    1    2  501    0 -0.21083697559E+03 -0.12735607637E+03  0.43509321936E+03  0.50000000000E+03  0.47000000000E+01 0. -1.
         -5    1    1    2    0  501  0.21083697559E+03  0.12735607637E+03 -0.43509321936E+03  0.50000000000E+03  0.47000000000E+01 0.  1.
</event>
<event>
 4    1  0.4903958E-004  0.1000000E+04  0.7546771E-02  0.8684367E-01
         11   -1    0    0    0    0  0.00000000000E+00  0.00000000000E+00  0.50000000000E+03  0.50000000000E+03  0.00000000000E+00 0. -1.
        -11   -1    0    0    0    0 -0.00000000000E+00 -0.00000000000E+00 -0.50000000000E+03  0.50000000000E+03  0.00000000000E+00 0.  1.
          5    1    1    2  501    0  0.12680977166E+03  0.39896218849E+03  0.27336123348E+03  0.50000000000E+03  0.47000000000E+01 0. -1.
         -5    1    1    2    0  501 -0.12680977166E+03 -0.39896218849E+03 -0.27336123348E+03  0.50000000000E+03  0.47000000000E+01 0.  1.
</event>
<event>
 4    1  0.4903958E-004  0.1000000E+04  0.7546771E-02  0.8684367E-01
         11   -1    0    0    0    0  0.00000000000E+00  0.00000000000E+00  0.50000000000E+03  0.50000000000E+03  0.00000000000E+00 0.  1.
        -11   -1    0    0    0    0 -0.00000000000E+00 -0.00000000000E+00 -0.50000000000E+03  0.50000000000E+03  0.00000000000E+00 0. -1.
          5    1    1    2  501    0 -0.30117101143E+03 -0.33643456981E+03  0.21467583028E+03  0.50000000000E+03  0.47000000000E+01 0. -1.
         -5    1    1    2    0  501  0.30117101143E+03  0.33643456981E+03 -0.21467583028E+03  0.50000000000E+03  0.47000000000E+01 0.  1.
</event>
<event>
 4    1  0.4903958E-004  0.1000000E+04  0.7546771E-02  0.8684367E-01
         11   -1    0    0    0    0  0.00000000000E+00  0.00000000000E+00  0.50000000000E+03  0.50000000000E+03  0.00000000000E+00 0. -1.
        -11   -1    0    0    0    0 -0.00000000000E+00 -0.00000000000E+00 -0.50000000000E+03  0.50000000000E+03  0.00000000000E+00 0.  1.
          5    1    1    2  501    0 -0.43370709545E+03 -0.18039342975E+03  0.17127251927E+03  0.50000000000E+03  0.47000000000E+01 0. -1.
         -5    1    1    2    0  501  0.43370709545E+03  0.18039342975E+03 -0.17127251927E+03  0.50000000000E+03  0.47000000000E+01 0.  1.
</event>
<event>
 4    1  0.4903958E-004  0.1000000E+04  0.7546771E-02  0.8684367E-01
         11   -1    0    0    0    0  0.00000000000E+00  0.00000000000E+00  0.50000000000E+03  0.50000000000E+03  0.00000000000E+00 0. -1.
        -11   -1    0    0    0    0 -0.00000000000E+00 -0.00000000000E+00 -0.50000000000E+03  0.50000000000E+03  0.00000000000E+00 0.  1.
          5    1    1    2  501    0  0.59831823779E+02  0.49613827633E+03 -0.15648438228E+02  0.50000000000E+03  0.47000000000E+01 0. -1.
         -5    1    1    2    0  501 -0.59831823779E+02 -0.49613827633E+03  0.15648438228E+02  0.50000000000E+03  0.47000000000E+01 0.  1.
</event>
<event>
 4    1  0.4903958E-004  0.1000000E+04  0.7546771E-02  0.8684367E-01
         11   -1    0    0    0    0  0.00000000000E+00  0.00000000000E+00  0.50000000000E+03  0.50000000000E+03  0.00000000000E+00 0. -1.
        -11   -1    0    0    0    0 -0.00000000000E+00 -0.00000000000E+00 -0.50000000000E+03  0.50000000000E+03  0.00000000000E+00 0.  1.
          5    1    1    2  501    0  0.61599915574E+02  0.25025595217E+03  0.42843356405E+03  0.50000000000E+03  0.47000000000E+01 0. -1.
         -5    1    1    2    0  501 -0.61599915574E+02 -0.25025595217E+03 -0.42843356405E+03  0.50000000000E+03  0.47000000000E+01 0.  1.
</event>
<event>
 4    1  0.4903958E-004  0.1000000E+04  0.7546771E-02  0.8684367E-01
         11   -1    0    0    0    0  0.00000000000E+00  0.00000000000E+00  0.50000000000E+03  0.50000000000E+03  0.00000000000E+00 0.  1.
        -11   -1    0    0    0    0 -0.00000000000E+00 -0.00000000000E+00 -0.50000000000E+03  0.50000000000E+03  0.00000000000E+00 0. -1.
          5    1    1    2  501    0 -0.97200177917E+02  0.44424421591E+03  0.20779102975E+03  0.50000000000E+03  0.47000000000E+01 0.  1.
         -5    1    1    2    0  501  0.97200177917E+02 -0.44424421591E+03 -0.20779102975E+03  0.50000000000E+03  0.47000000000E+01 0. -1.
</event>
<event>
 4    1  0.4903958E-004  0.1000000E+04  0.7546771E-02  0.8684367E-01
         11   -1    0    0    0    0  0.00000000000E+00  0.00000000000E+00  0.50000000000E+03  0.50000000000E+03  0.00000000000E+00 0.  1.
        -11   -1    0    0    0    0 -0.00000000000E+00 -0.00000000000E+00 -0.50000000000E+03  0.50000000000E+03  0.00000000000E+00 0. -1.
          5    1    1    2  501    0  0.30390070676E+03  0.45124103032E+02  0.39444402107E+03  0.50000000000E+03  0.47000000000E+01 0.  1.
         -5    1    1    2    0  501 -0.30390070676E+03 -0.45124103032E+02 -0.39444402107E+03  0.50000000000E+03  0.47000000000E+01 0. -1.
</event>
<event>
 4    1  0.4903958E-004  0.1000000E+04  0.7546771E-02  0.8684367E-01
         11   -1    0    0    0    0  0.00000000000E+00  0.00000000000E+00  0.50000000000E+03  0.50000000000E+03  0.00000000000E+00 0. -1.
        -11   -1    0    0    0    0 -0.00000000000E+00 -0.00000000000E+00 -0.50000000000E+03  0.50000000000E+03  0.00000000000E+00 0.  1.
          5    1    1    2  501    0  0.16318432135E+03 -0.17696639215E+03  0.43821419798E+03  0.50000000000E+03  0.47000000000E+01 0. -1.
         -5    1    1    2    0  501 -0.16318432135E+03  0.17696639215E+03 -0.43821419798E+03  0.50000000000E+03  0.47000000000E+01 0.  1.
</event>
<event>
 4    1  0.4903958E-004  0.1000000E+04  0.7546771E-02  0.8684367E-01
         11   -1    0    0    0    0  0.00000000000E+00  0.00000000000E+00  0.50000000000E+03  0.50000000000E+03  0.00000000000E+00 0.  1.
        -11   -1    0    0    0    0 -0.00000000000E+00 -0.00000000000E+00 -0.50000000000E+03  0.50000000000E+03  0.00000000000E+00 0. -1.
          5    1    1    2  501    0  0.20311485931E+03 -0.42849079497E+03  0.15848628507E+03  0.50000000000E+03  0.47000000000E+01 0. -1.
         -5    1    1    2    0  501 -0.20311485931E+03  0.42849079497E+03 -0.15848628507E+03  0.50000000000E+03  0.47000000000E+01 0.  1.
</event>
<event>
 4    1  0.4903958E-004  0.1000000E+04  0.7546771E-02  0.8684367E-01
         11   -1    0    0    0    0  0.00000000000E+00  0.00000000000E+00  0.50000000000E+03  0.50000000000E+03  0.00000000000E+00 0. -1.
        -11   -1    0    0    0    0 -0.00000000000E+00 -0.00000000000E+00 -0.50000000000E+03  0.50000000000E+03  0.00000000000E+00 0.  1.
          5    1    1    2  501    0  0.18587623097E+03 -0.36369178898E+03  0.28836820107E+03  0.50000000000E+03  0.47000000000E+01 0. -1.
         -5    1    1    2    0  501 -0.18587623097E+03  0.36369178898E+03 -0.28836820107E+03  0.50000000000E+03  0.47000000000E+01 0.  1.
</event>
<event>
 4    1  0.4903958E-004  0.1000000E+04  0.7546771E-02  0.8684367E-01
         11   -1    0    0    0    0  0.00000000000E+00  0.00000000000E+00  0.50000000000E+03  0.50000000000E+03  0.00000000000E+00 0. -1.
        -11   -1    0    0    0    0 -0.00000000000E+00 -0.00000000000E+00 -0.50000000000E+03  0.50000000000E+03  0.00000000000E+00 0.  1.
          5    1    1    2  501    0 -0.32981226913E+03 -0.28496520881E+03  0.24494204803E+03  0.50000000000E+03  0.47000000000E+01 0. -1.
         -5    1    1    2    0  501  0.32981226913E+03  0.28496520881E+03 -0.24494204803E+03  0.50000000000E+03  0.47000000000E+01 0.  1.
</event>
<event>
 4    1  0.4903958E-004  0.1000000E+04  0.7546771E-02  0.8684367E-01
         11   -1    0    0    0    0  0.00000000000E+00  0.00000000000E+00  0.50000000000E+03  0.50000000000E+03  0.00000000000E+00 0. -1.
        -11   -1    0    0    0    0 -0.00000000000E+00 -0.00000000000E+00 -0.50000000000E+03  0.50000000000E+03  0.00000000000E+00 0.  1.
          5    1    1    2  501    0 -0.48846049121E+03  0.36015293198E+02 -0.10043484048E+03  0.50000000000E+03  0.47000000000E+01 0. -1.
         -5    1    1    2    0  501  0.48846049121E+03 -0.36015293198E+02  0.10043484048E+03  0.50000000000E+03  0.47000000000E+01 0.  1.
</event>
<event>
 4    1  0.4903958E-004  0.1000000E+04  0.7546771E-02  0.8684367E-01
         11   -1    0    0    0    0  0.00000000000E+00  0.00000000000E+00  0.50000000000E+03  0.50000000000E+03  0.00000000000E+00 0. -1.
        -11   -1    0    0    0    0 -0.00000000000E+00 -0.00000000000E+00 -0.50000000000E+03  0.50000000000E+03  0.00000000000E+00 0.  1.
          5    1    1    2  501    0  0.41308199053E+03  0.18961677793E+03  0.20829463899E+03  0.50000000000E+03  0.47000000000E+01 0. -1.
         -5    1    1    2    0  501 -0.41308199053E+03 -0.18961677793E+03 -0.20829463899E+03  0.50000000000E+03  0.47000000000E+01 0.  1.
</event>
<event>
 4    1  0.4903958E-004  0.1000000E+04  0.7546771E-02  0.8684367E-01
         11   -1    0    0    0    0  0.00000000000E+00  0.00000000000E+00  0.50000000000E+03  0.50000000000E+03  0.00000000000E+00 0. -1.
        -11   -1    0    0    0    0 -0.00000000000E+00 -0.00000000000E+00 -0.50000000000E+03  0.50000000000E+03  0.00000000000E+00 0.  1.
          5    1    1    2  501    0 -0.17617340427E+03 -0.46333895773E+03  0.65252217397E+02  0.50000000000E+03  0.47000000000E+01 0. -1.
         -5    1    1    2    0  501  0.17617340427E+03  0.46333895773E+03 -0.65252217397E+02  0.50000000000E+03  0.47000000000E+01 0.  1.
</event>
<event>
 4    1  0.4903958E-004  0.1000000E+04  0.7546771E-02  0.8684367E-01
         11   -1    0    0    0    0  0.00000000000E+00  0.00000000000E+00  0.50000000000E+03  0.50000000000E+03  0.00000000000E+00 0. -1.
        -11   -1    0    0    0    0 -0.00000000000E+00 -0.00000000000E+00 -0.50000000000E+03  0.50000000000E+03  0.00000000000E+00 0.  1.
          5    1    1    2  501    0  0.99610513182E+02 -0.23499813806E+03  0.42992037724E+03  0.50000000000E+03  0.47000000000E+01 0. -1.
         -5    1    1    2    0  501 -0.99610513182E+02  0.23499813806E+03 -0.42992037724E+03  0.50000000000E+03  0.47000000000E+01 0.  1.
</event>
<event>
 4    1  0.4903958E-004  0.1000000E+04  0.7546771E-02  0.8684367E-01
         11   -1    0    0    0    0  0.00000000000E+00  0.00000000000E+00  0.50000000000E+03  0.50000000000E+03  0.00000000000E+00 0.  1.
        -11   -1    0    0    0    0 -0.00000000000E+00 -0.00000000000E+00 -0.50000000000E+03  0.50000000000E+03  0.00000000000E+00 0. -1.
          5    1    1    2  501    0 -0.12694151894E+03  0.20181159545E+03 -0.43947222974E+03  0.50000000000E+03  0.47000000000E+01 0. -1.
         -5    1    1    2    0  501  0.12694151894E+03 -0.20181159545E+03  0.43947222974E+03  0.50000000000E+03  0.47000000000E+01 0.  1.
</event>
<event>
 4    1  0.4903958E-004  0.1000000E+04  0.7546771E-02  0.8684367E-01
         11   -1    0    0    0    0  0.00000000000E+00  0.00000000000E+00  0.50000000000E+03  0.50000000000E+03  0.00000000000E+00 0. -1.
        -11   -1    0    0    0    0 -0.00000000000E+00 -0.00000000000E+00 -0.50000000000E+03  0.50000000000E+03  0.00000000000E+00 0.  1.
          5    1    1    2  501    0  0.60940206970E+02 -0.16603413150E+03  0.46765036978E+03  0.50000000000E+03  0.47000000000E+01 0. -1.
         -5    1    1    2    0  501 -0.60940206970E+02  0.16603413150E+03 -0.46765036978E+03  0.50000000000E+03  0.47000000000E+01 0.  1.
</event>
<event>
 4    1  0.4903958E-004  0.1000000E+04  0.7546771E-02  0.8684367E-01
         11   -1    0    0    0    0  0.00000000000E+00  0.00000000000E+00  0.50000000000E+03  0.50000000000E+03  0.00000000000E+00 0. -1.
        -11   -1    0    0    0    0 -0.00000000000E+00 -0.00000000000E+00 -0.50000000000E+03  0.50000000000E+03  0.00000000000E+00 0.  1.
          5    1    1    2  501    0  0.11388786632E+03  0.33158084503E+03  0.35645702001E+03  0.50000000000E+03  0.47000000000E+01 0. -1.
         -5    1    1    2    0  501 -0.11388786632E+03 -0.33158084503E+03 -0.35645702001E+03  0.50000000000E+03  0.47000000000E+01 0.  1.
</event>
<event>
 4    1  0.4903958E-004  0.1000000E+04  0.7546771E-02  0.8684367E-01
         11   -1    0    0    0    0  0.00000000000E+00  0.00000000000E+00  0.50000000000E+03  0.50000000000E+03  0.00000000000E+00 0. -1.
        -11   -1    0    0    0    0 -0.00000000000E+00 -0.00000000000E+00 -0.50000000000E+03  0.50000000000E+03  0.00000000000E+00 0.  1.
          5    1    1    2  501    0 -0.34942527018E+03  0.17765261820E+03  0.31035373013E+03  0.50000000000E+03  0.47000000000E+01 0. -1.
         -5    1    1    2    0  501  0.34942527018E+03 -0.17765261820E+03 -0.31035373013E+03  0.50000000000E+03  0.47000000000E+01 0.  1.
</event>
<event>
 4    1  0.4903958E-004  0.1000000E+04  0.7546771E-02  0.8684367E-01
         11   -1    0    0    0    0  0.00000000000E+00  0.00000000000E+00  0.50000000000E+03  0.50000000000E+03  0.00000000000E+00 0. -1.
        -11   -1    0    0    0    0 -0.00000000000E+00 -0.00000000000E+00 -0.50000000000E+03  0.50000000000E+03  0.00000000000E+00 0.  1.
          5    1    1    2  501    0  0.29278367804E+03  0.20133714703E+03  0.35173709087E+03  0.50000000000E+03  0.47000000000E+01 0. -1.
         -5    1    1    2    0  501 -0.29278367804E+03 -0.20133714703E+03 -0.35173709087E+03  0.50000000000E+03  0.47000000000E+01 0.  1.
</event>
<event>
 4    1  0.4903958E-004  0.1000000E+04  0.7546771E-02  0.8684367E-01
         11   -1    0    0    0    0  0.00000000000E+00  0.00000000000E+00  0.50000000000E+03  0.50000000000E+03  0.00000000000E+00 0. -1.
        -11   -1    0    0    0    0 -0.00000000000E+00 -0.00000000000E+00 -0.50000000000E+03  0.50000000000E+03  0.00000000000E+00 0.  1.
          5    1    1    2  501    0  0.12960653334E+02 -0.13775462875E+03  0.48045144783E+03  0.50000000000E+03  0.47000000000E+01 0. -1.
         -5    1    1    2    0  501 -0.12960653334E+02  0.13775462875E+03 -0.48045144783E+03  0.50000000000E+03  0.47000000000E+01 0.  1.
</event>
<event>
 4    1  0.4903958E-004  0.1000000E+04  0.7546771E-02  0.8684367E-01
         11   -1    0    0    0    0  0.00000000000E+00  0.00000000000E+00  0.50000000000E+03  0.50000000000E+03  0.00000000000E+00 0. -1.
        -11   -1    0    0    0    0 -0.00000000000E+00 -0.00000000000E+00 -0.50000000000E+03  0.50000000000E+03  0.00000000000E+00 0.  1.
          5    1    1    2  501    0  0.24095087709E+03 -0.31277472379E+03  0.30674510100E+03  0.50000000000E+03  0.47000000000E+01 0. -1.
         -5    1    1    2    0  501 -0.24095087709E+03  0.31277472379E+03 -0.30674510100E+03  0.50000000000E+03  0.47000000000E+01 0.  1.
</event>
<event>
 4    1  0.4903958E-004  0.1000000E+04  0.7546771E-02  0.8684367E-01
         11   -1    0    0    0    0  0.00000000000E+00  0.00000000000E+00  0.50000000000E+03  0.50000000000E+03  0.00000000000E+00 0. -1.
        -11   -1    0    0    0    0 -0.00000000000E+00 -0.00000000000E+00 -0.50000000000E+03  0.50000000000E+03  0.00000000000E+00 0.  1.
          5    1    1    2  501    0 -0.41393129769E+03  0.23965939501E+03  0.14560963284E+03  0.50000000000E+03  0.47000000000E+01 0. -1.
         -5    1    1    2    0  501  0.41393129769E+03 -0.23965939501E+03 -0.14560963284E+03  0.50000000000E+03  0.47000000000E+01 0.  1.
</event>
<event>
 4    1  0.4903958E-004  0.1000000E+04  0.7546771E-02  0.8684367E-01
         11   -1    0    0    0    0  0.00000000000E+00  0.00000000000E+00  0.50000000000E+03  0.50000000000E+03  0.00000000000E+00 0.  1.
        -11   -1    0    0    0    0 -0.00000000000E+00 -0.00000000000E+00 -0.50000000000E+03  0.50000000000E+03  0.00000000000E+00 0. -1.
          5    1    1    2  501    0  0.51662796966E+02  0.24961545009E+03  0.43011741709E+03  0.50000000000E+03  0.47000000000E+01 0.  1.
         -5    1    1    2    0  501 -0.51662796966E+02 -0.24961545009E+03 -0.43011741709E+03  0.50000000000E+03  0.47000000000E+01 0. -1.
</event>
<event>
 4    1  0.4903958E-004  0.1000000E+04  0.7546771E-02  0.8684367E-01
         11   -1    0    0    0    0  0.00000000000E+00  0.00000000000E+00  0.50000000000E+03  0.50000000000E+03  0.00000000000E+00 0. -1.
        -11   -1    0    0    0    0 -0.00000000000E+00 -0.00000000000E+00 -0.50000000000E+03  0.50000000000E+03  0.00000000000E+00 0.  1.
          5    1    1    2  501    0 -0.12046574247E+03 -0.26211287645E+03  0.40836595707E+03  0.50000000000E+03  0.47000000000E+01 0. -1.
         -5    1    1    2    0  501  0.12046574247E+03  0.26211287645E+03 -0.40836595707E+03  0.50000000000E+03  0.47000000000E+01 0.  1.
</event>
<event>
 4    1  0.4903958E-004  0.1000000E+04  0.7546771E-02  0.8684367E-01
         11   -1    0    0    0    0  0.00000000000E+00  0.00000000000E+00  0.50000000000E+03  0.50000000000E+03  0.00000000000E+00 0. -1.
        -11   -1    0    0    0    0 -0.00000000000E+00 -0.00000000000E+00 -0.50000000000E+03  0.50000000000E+03  0.00000000000E+00 0.  1.
          5    1    1    2  501    0 -0.10481886726E+03  0.24950906388E+03  0.42039997872E+03  0.50000000000E+03  0.47000000000E+01 0. -1.
         -5    1    1    2    0  501  0.10481886726E+03 -0.24950906388E+03 -0.42039997872E+03  0.50000000000E+03  0.47000000000E+01 0.  1.
</event>
<event>
 4    1  0.4903958E-004  0.1000000E+04  0.7546771E-02  0.8684367E-01
         11   -1    0    0    0    0  0.00000000000E+00  0.00000000000E+00  0.50000000000E+03  0.50000000000E+03  0.00000000000E+00 0. -1.
        -11   -1    0    0    0    0 -0.00000000000E+00 -0.00000000000E+00 -0.50000000000E+03  0.50000000000E+03  0.00000000000E+00 0.  1.
          5    1    1    2  501    0  0.29198060881E+03  0.29542678362E+03  0.27829525616E+03  0.50000000000E+03  0.47000000000E+01 0. -1.
         -5    1    1    2    0  501 -0.29198060881E+03 -0.29542678362E+03 -0.27829525616E+03  0.50000000000E+03  0.47000000000E+01 0.  1.
</event>
<event>
 4    1  0.4903958E-004  0.1000000E+04  0.7546771E-02  0.8684367E-01
         11   -1    0    0    0    0  0.00000000000E+00  0.00000000000E+00  0.50000000000E+03  0.50000000000E+03  0.00000000000E+00 0. -1.
        -11   -1    0    0    0    0 -0.00000000000E+00 -0.00000000000E+00 -0.50000000000E+03  0.50000000000E+03  0.00000000000E+00 0.  1.
          5    1    1    2  501    0  0.46077860186E+03 -0.16484050938E+03  0.10241384931E+03  0.50000000000E+03  0.47000000000E+01 0. -1.
         -5    1    1    2    0  501 -0.46077860186E+03  0.16484050938E+03 -0.10241384931E+03  0.50000000000E+03  0.47000000000E+01 0.  1.
</event>
<event>
 4    1  0.4903958E-004  0.1000000E+04  0.7546771E-02  0.8684367E-01
         11   -1    0    0    0    0  0.00000000000E+00  0.00000000000E+00  0.50000000000E+03  0.50000000000E+03  0.00000000000E+00 0. -1.
        -11   -1    0    0    0    0 -0.00000000000E+00 -0.00000000000E+00 -0.50000000000E+03  0.50000000000E+03  0.00000000000E+00 0.  1.
          5    1    1    2  501    0 -0.14828281236E+03  0.37867373858E+03  0.29085446063E+03  0.50000000000E+03  0.47000000000E+01 0. -1.
         -5    1    1    2    0  501  0.14828281236E+03 -0.37867373858E+03 -0.29085446063E+03  0.50000000000E+03  0.47000000000E+01 0.  1.
</event>
<event>
 4    1  0.4903958E-004  0.1000000E+04  0.7546771E-02  0.8684367E-01
         11   -1    0    0    0    0  0.00000000000E+00  0.00000000000E+00  0.50000000000E+03  0.50000000000E+03  0.00000000000E+00 0. -1.
        -11   -1    0    0    0    0 -0.00000000000E+00 -0.00000000000E+00 -0.50000000000E+03  0.50000000000E+03  0.00000000000E+00 0.  1.
          5    1    1    2  501    0  0.76353874457E+02 -0.49399069331E+03  0.11008668555E+02  0.50000000000E+03  0.47000000000E+01 0. -1.
         -5    1    1    2    0  501 -0.76353874457E+02  0.49399069331E+03 -0.11008668555E+02  0.50000000000E+03  0.47000000000E+01 0.  1.
</event>
<event>
 4    1  0.4903958E-004  0.1000000E+04  0.7546771E-02  0.8684367E-01
         11   -1    0    0    0    0  0.00000000000E+00  0.00000000000E+00  0.50000000000E+03  0.50000000000E+03  0.00000000000E+00 0.  1.
        -11   -1    0    0    0    0 -0.00000000000E+00 -0.00000000000E+00 -0.50000000000E+03  0.50000000000E+03  0.00000000000E+00 0. -1.
          5    1    1    2  501    0  0.31759457355E+03 -0.38603551845E+03  0.93901727924E+01  0.50000000000E+03  0.47000000000E+01 0. -1.
         -5    1    1    2    0  501 -0.31759457355E+03  0.38603551845E+03 -0.93901727924E+01  0.50000000000E+03  0.47000000000E+01 0.  1.
</event>
<event>
 4    1  0.4903958E-004  0.1000000E+04  0.7546771E-02  0.8684367E-01
         11   -1    0    0    0    0  0.00000000000E+00  0.00000000000E+00  0.50000000000E+03  0.50000000000E+03  0.00000000000E+00 0.  1.
        -11   -1    0    0    0    0 -0.00000000000E+00 -0.00000000000E+00 -0.50000000000E+03  0.50000000000E+03  0.00000000000E+00 0. -1.
          5    1    1    2  501    0  0.22207049867E+03 -0.38965176237E+03  0.22098440602E+03  0.50000000000E+03  0.47000000000E+01 0.  1.
         -5    1    1    2    0  501 -0.22207049867E+03  0.38965176237E+03 -0.22098440602E+03  0.50000000000E+03  0.47000000000E+01 0. -1.
</event>
<event>
 4    1  0.4903958E-004  0.1000000E+04  0.7546771E-02  0.8684367E-01
         11   -1    0    0    0    0  0.00000000000E+00  0.00000000000E+00  0.50000000000E+03  0.50000000000E+03  0.00000000000E+00 0. -1.
        -11   -1    0    0    0    0 -0.00000000000E+00 -0.00000000000E+00 -0.50000000000E+03  0.50000000000E+03  0.00000000000E+00 0.  1.
          5    1    1    2  501    0 -0.69136486270E+02  0.49069240099E+03  0.66475739003E+02  0.50000000000E+03  0.47000000000E+01 0. -1.
         -5    1    1    2    0  501  0.69136486270E+02 -0.49069240099E+03 -0.66475739003E+02  0.50000000000E+03  0.47000000000E+01 0.  1.
</event>
<event>
 4    1  0.4903958E-004  0.1000000E+04  0.7546771E-02  0.8684367E-01
         11   -1    0    0    0    0  0.00000000000E+00  0.00000000000E+00  0.50000000000E+03  0.50000000000E+03  0.00000000000E+00 0. -1.
        -11   -1    0    0    0    0 -0.00000000000E+00 -0.00000000000E+00 -0.50000000000E+03  0.50000000000E+03  0.00000000000E+00 0.  1.
          5    1    1    2  501    0  0.39856406738E+03  0.24391017040E+03 -0.17785506170E+03  0.50000000000E+03  0.47000000000E+01 0. -1.
         -5    1    1    2    0  501 -0.39856406738E+03 -0.24391017040E+03  0.17785506170E+03  0.50000000000E+03  0.47000000000E+01 0.  1.
</event>
<event>
 4    1  0.4903958E-004  0.1000000E+04  0.7546771E-02  0.8684367E-01
         11   -1    0    0    0    0  0.00000000000E+00  0.00000000000E+00  0.50000000000E+03  0.50000000000E+03  0.00000000000E+00 0. -1.
        -11   -1    0    0    0    0 -0.00000000000E+00 -0.00000000000E+00 -0.50000000000E+03  0.50000000000E+03  0.00000000000E+00 0.  1.
          5    1    1    2  501    0 -0.10644257084E+03 -0.12630708295E+03  0.47190508570E+03  0.50000000000E+03  0.47000000000E+01 0. -1.
         -5    1    1    2    0  501  0.10644257084E+03  0.12630708295E+03 -0.47190508570E+03  0.50000000000E+03  0.47000000000E+01 0.  1.
</event>
<event>
 4    1  0.4903958E-004  0.1000000E+04  0.7546771E-02  0.8684367E-01
         11   -1    0    0    0    0  0.00000000000E+00  0.00000000000E+00  0.50000000000E+03  0.50000000000E+03  0.00000000000E+00 0. -1.
        -11   -1    0    0    0    0 -0.00000000000E+00 -0.00000000000E+00 -0.50000000000E+03  0.50000000000E+03  0.00000000000E+00 0.  1.
          5    1    1    2  501    0  0.36442460841E+03  0.77308392964E+02  0.33346068308E+03  0.50000000000E+03  0.47000000000E+01 0. -1.
         -5    1    1    2    0  501 -0.36442460841E+03 -0.77308392964E+02 -0.33346068308E+03  0.50000000000E+03  0.47000000000E+01 0.  1.
</event>
<event>
 4    1  0.4903958E-004  0.1000000E+04  0.7546771E-02  0.8684367E-01
         11   -1    0    0    0    0  0.00000000000E+00  0.00000000000E+00  0.50000000000E+03  0.50000000000E+03  0.00000000000E+00 0.  1.
        -11   -1    0    0    0    0 -0.00000000000E+00 -0.00000000000E+00 -0.50000000000E+03  0.50000000000E+03  0.00000000000E+00 0. -1.
          5    1    1    2  501    0  0.50587866003E+01 -0.23629431543E+03  0.44058746597E+03  0.50000000000E+03  0.47000000000E+01 0.  1.
         -5    1    1    2    0  501 -0.50587866003E+01  0.23629431543E+03 -0.44058746597E+03  0.50000000000E+03  0.47000000000E+01 0. -1.
</event>
<event>
 4    1  0.4903958E-004  0.1000000E+04  0.7546771E-02  0.8684367E-01
         11   -1    0    0    0    0  0.00000000000E+00  0.00000000000E+00  0.50000000000E+03  0.50000000000E+03  0.00000000000E+00 0. -1.
        -11   -1    0    0    0    0 -0.00000000000E+00 -0.00000000000E+00 -0.50000000000E+03  0.50000000000E+03  0.00000000000E+00 0.  1.
          5    1    1    2  501    0 -0.22792392683E+03 -0.55416496023E+02  0.44154003844E+03  0.50000000000E+03  0.47000000000E+01 0. -1.
         -5    1    1    2    0  501  0.22792392683E+03  0.55416496023E+02 -0.44154003844E+03  0.50000000000E+03  0.47000000000E+01 0.  1.
</event>
<event>
 4    1  0.4903958E-004  0.1000000E+04  0.7546771E-02  0.8684367E-01
         11   -1    0    0    0    0  0.00000000000E+00  0.00000000000E+00  0.50000000000E+03  0.50000000000E+03  0.00000000000E+00 0. -1.
        -11   -1    0    0    0    0 -0.00000000000E+00 -0.00000000000E+00 -0.50000000000E+03  0.50000000000E+03  0.00000000000E+00 0.  1.
          5    1    1    2  501    0 -0.44005640806E+03 -0.20618989623E+02 -0.23643841691E+03  0.50000000000E+03  0.47000000000E+01 0. -1.
         -5    1    1    2    0  501  0.44005640806E+03  0.20618989623E+02  0.23643841691E+03  0.50000000000E+03  0.47000000000E+01 0.  1.
</event>
<event>
 4    1  0.4903958E-004  0.1000000E+04  0.7546771E-02  0.8684367E-01
         11   -1    0    0    0    0  0.00000000000E+00  0.00000000000E+00  0.50000000000E+03  0.50000000000E+03  0.00000000000E+00 0. -1.
        -11   -1    0    0    0    0 -0.00000000000E+00 -0.00000000000E+00 -0.50000000000E+03  0.50000000000E+03  0.00000000000E+00 0.  1.
          5    1    1    2  501    0 -0.24065773482E+03 -0.43106562242E+03  0.79020211560E+02  0.50000000000E+03  0.47000000000E+01 0. -1.
         -5    1    1    2    0  501  0.24065773482E+03  0.43106562242E+03 -0.79020211560E+02  0.50000000000E+03  0.47000000000E+01 0.  1.
</event>
<event>
 4    1  0.4903958E-004  0.1000000E+04  0.7546771E-02  0.8684367E-01
         11   -1    0    0    0    0  0.00000000000E+00  0.00000000000E+00  0.50000000000E+03  0.50000000000E+03  0.00000000000E+00 0. -1.
        -11   -1    0    0    0    0 -0.00000000000E+00 -0.00000000000E+00 -0.50000000000E+03  0.50000000000E+03  0.00000000000E+00 0.  1.
          5    1    1    2  501    0 -0.17997409744E+03  0.25427854165E+03  0.39106221693E+03  0.50000000000E+03  0.47000000000E+01 0. -1.
         -5    1    1    2    0  501  0.17997409744E+03 -0.25427854165E+03 -0.39106221693E+03  0.50000000000E+03  0.47000000000E+01 0.  1.
</event>
<event>
 4    1  0.4903958E-004  0.1000000E+04  0.7546771E-02  0.8684367E-01
         11   -1    0    0    0    0  0.00000000000E+00  0.00000000000E+00  0.50000000000E+03  0.50000000000E+03  0.00000000000E+00 0. -1.
        -11   -1    0    0    0    0 -0.00000000000E+00 -0.00000000000E+00 -0.50000000000E+03  0.50000000000E+03  0.00000000000E+00 0.  1.
          5    1    1    2  501    0  0.29735777142E+03  0.22144377425E+03  0.33543840063E+03  0.50000000000E+03  0.47000000000E+01 0. -1.
         -5    1    1    2    0  501 -0.29735777142E+03 -0.22144377425E+03 -0.33543840063E+03  0.50000000000E+03  0.47000000000E+01 0.  1.
</event>
<event>
 4    1  0.4903958E-004  0.1000000E+04  0.7546771E-02  0.8684367E-01
         11   -1    0    0    0    0  0.00000000000E+00  0.00000000000E+00  0.50000000000E+03  0.50000000000E+03  0.00000000000E+00 0. -1.
        -11   -1    0    0    0    0 -0.00000000000E+00 -0.00000000000E+00 -0.50000000000E+03  0.50000000000E+03  0.00000000000E+00 0.  1.
          5    1    1    2  501    0  0.69059200311E+01 -0.38925320048E+03  0.31370713124E+03  0.50000000000E+03  0.47000000000E+01 0. -1.
         -5    1    1    2    0  501 -0.69059200311E+01  0.38925320048E+03 -0.31370713124E+03  0.50000000000E+03  0.47000000000E+01 0.  1.
</event>
<event>
 4    1  0.4903958E-004  0.1000000E+04  0.7546771E-02  0.8684367E-01
         11   -1    0    0    0    0  0.00000000000E+00  0.00000000000E+00  0.50000000000E+03  0.50000000000E+03  0.00000000000E+00 0. -1.
        -11   -1    0    0    0    0 -0.00000000000E+00 -0.00000000000E+00 -0.50000000000E+03  0.50000000000E+03  0.00000000000E+00 0.  1.
          5    1    1    2  501    0  0.32061091031E+03 -0.10180672431E+03 -0.36989450533E+03  0.50000000000E+03  0.47000000000E+01 0. -1.
         -5    1    1    2    0  501 -0.32061091031E+03  0.10180672431E+03  0.36989450533E+03  0.50000000000E+03  0.47000000000E+01 0.  1.
</event>
<event>
 4    1  0.4903958E-004  0.1000000E+04  0.7546771E-02  0.8684367E-01
         11   -1    0    0    0    0  0.00000000000E+00  0.00000000000E+00  0.50000000000E+03  0.50000000000E+03  0.00000000000E+00 0.  1.
        -11   -1    0    0    0    0 -0.00000000000E+00 -0.00000000000E+00 -0.50000000000E+03  0.50000000000E+03  0.00000000000E+00 0. -1.
          5    1    1    2  501    0  0.38719509599E+03  0.24185732262E+03  0.20386981909E+03  0.50000000000E+03  0.47000000000E+01 0.  1.
         -5    1    1    2    0  501 -0.38719509599E+03 -0.24185732262E+03 -0.20386981909E+03  0.50000000000E+03  0.47000000000E+01 0. -1.
</event>
<event>
 4    1  0.4903958E-004  0.1000000E+04  0.7546771E-02  0.8684367E-01
         11   -1    0    0    0    0  0.00000000000E+00  0.00000000000E+00  0.50000000000E+03  0.50000000000E+03  0.00000000000E+00 0. -1.
        -11   -1    0    0    0    0 -0.00000000000E+00 -0.00000000000E+00 -0.50000000000E+03  0.50000000000E+03  0.00000000000E+00 0.  1.
          5    1    1    2  501    0 -0.16669761526E+03  0.65980305315E+02  0.46672948737E+03  0.50000000000E+03  0.47000000000E+01 0. -1.
         -5    1    1    2    0  501  0.16669761526E+03 -0.65980305315E+02 -0.46672948737E+03  0.50000000000E+03  0.47000000000E+01 0.  1.
</event>
<event>
 4    1  0.4903958E-004  0.1000000E+04  0.7546771E-02  0.8684367E-01
         11   -1    0    0    0    0  0.00000000000E+00  0.00000000000E+00  0.50000000000E+03  0.50000000000E+03  0.00000000000E+00 0. -1.
        -11   -1    0    0    0    0 -0.00000000000E+00 -0.00000000000E+00 -0.50000000000E+03  0.50000000000E+03  0.00000000000E+00 0.  1.
          5    1    1    2  501    0  0.32847358902E+03  0.49502956688E+02  0.37367428142E+03  0.50000000000E+03  0.47000000000E+01 0. -1.
         -5    1    1    2    0  501 -0.32847358902E+03 -0.49502956688E+02 -0.37367428142E+03  0.50000000000E+03  0.47000000000E+01 0.  1.
</event>
<event>
 4    1  0.4903958E-004  0.1000000E+04  0.7546771E-02  0.8684367E-01
         11   -1    0    0    0    0  0.00000000000E+00  0.00000000000E+00  0.50000000000E+03  0.50000000000E+03  0.00000000000E+00 0. -1.
        -11   -1    0    0    0    0 -0.00000000000E+00 -0.00000000000E+00 -0.50000000000E+03  0.50000000000E+03  0.00000000000E+00 0.  1.
          5    1    1    2  501    0 -0.72822296919E+02 -0.33663157395E+03  0.36242793282E+03  0.50000000000E+03  0.47000000000E+01 0. -1.
         -5    1    1    2    0  501  0.72822296919E+02  0.33663157395E+03 -0.36242793282E+03  0.50000000000E+03  0.47000000000E+01 0.  1.
</event>
<event>
 4    1  0.4903958E-004  0.1000000E+04  0.7546771E-02  0.8684367E-01
         11   -1    0    0    0    0  0.00000000000E+00  0.00000000000E+00  0.50000000000E+03  0.50000000000E+03  0.00000000000E+00 0. -1.
        -11   -1    0    0    0    0 -0.00000000000E+00 -0.00000000000E+00 -0.50000000000E+03  0.50000000000E+03  0.00000000000E+00 0.  1.
          5    1    1    2  501    0  0.45146769993E+03 -0.12891435373E+03 -0.17186016213E+03  0.50000000000E+03  0.47000000000E+01 0. -1.
         -5    1    1    2    0  501 -0.45146769993E+03  0.12891435373E+03  0.17186016213E+03  0.50000000000E+03  0.47000000000E+01 0.  1.
</event>
<event>
 4    1  0.4903958E-004  0.1000000E+04  0.7546771E-02  0.8684367E-01
         11   -1    0    0    0    0  0.00000000000E+00  0.00000000000E+00  0.50000000000E+03  0.50000000000E+03  0.00000000000E+00 0. -1.
        -11   -1    0    0    0    0 -0.00000000000E+00 -0.00000000000E+00 -0.50000000000E+03  0.50000000000E+03  0.00000000000E+00 0.  1.
          5    1    1    2  501    0 -0.76809735435E+02 -0.24459523105E+03  0.42924509023E+03  0.50000000000E+03  0.47000000000E+01 0. -1.
         -5    1    1    2    0  501  0.76809735435E+02  0.24459523105E+03 -0.42924509023E+03  0.50000000000E+03  0.47000000000E+01 0.  1.
</event>
<event>
 4    1  0.4903958E-004  0.1000000E+04  0.7546771E-02  0.8684367E-01
         11   -1    0    0    0    0  0.00000000000E+00  0.00000000000E+00  0.50000000000E+03  0.50000000000E+03  0.00000000000E+00 0. -1.
        -11   -1    0    0    0    0 -0.00000000000E+00 -0.00000000000E+00 -0.50000000000E+03  0.50000000000E+03  0.00000000000E+00 0.  1.
          5    1    1    2  501    0  0.47738299188E+03 -0.14860477936E+03 -0.92839740329E-01  0.50000000000E+03  0.47000000000E+01 0. -1.
         -5    1    1    2    0  501 -0.47738299188E+03  0.14860477936E+03  0.92839740329E-01  0.50000000000E+03  0.47000000000E+01 0.  1.
</event>
<event>
 4    1  0.4903958E-004  0.1000000E+04  0.7546771E-02  0.8684367E-01
         11   -1    0    0    0    0  0.00000000000E+00  0.00000000000E+00  0.50000000000E+03  0.50000000000E+03  0.00000000000E+00 0.  1.
        -11   -1    0    0    0    0 -0.00000000000E+00 -0.00000000000E+00 -0.50000000000E+03  0.50000000000E+03  0.00000000000E+00 0. -1.
          5    1    1    2  501    0  0.20779375489E+03  0.39579447227E+03  0.22393392139E+03  0.50000000000E+03  0.47000000000E+01 0.  1.
         -5    1    1    2    0  501 -0.20779375489E+03 -0.39579447227E+03 -0.22393392139E+03  0.50000000000E+03  0.47000000000E+01 0. -1.
</event>
<event>
 4    1  0.4903958E-004  0.1000000E+04  0.7546771E-02  0.8684367E-01
         11   -1    0    0    0    0  0.00000000000E+00  0.00000000000E+00  0.50000000000E+03  0.50000000000E+03  0.00000000000E+00 0. -1.
        -11   -1    0    0    0    0 -0.00000000000E+00 -0.00000000000E+00 -0.50000000000E+03  0.50000000000E+03  0.00000000000E+00 0.  1.
          5    1    1    2  501    0 -0.21982167731E+03  0.35943493575E+03  0.26918927755E+03  0.50000000000E+03  0.47000000000E+01 0. -1.
         -5    1    1    2    0  501  0.21982167731E+03 -0.35943493575E+03 -0.26918927755E+03  0.50000000000E+03  0.47000000000E+01 0.  1.
</event>
<event>
 4    1  0.4903958E-004  0.1000000E+04  0.7546771E-02  0.8684367E-01
         11   -1    0    0    0    0  0.00000000000E+00  0.00000000000E+00  0.50000000000E+03  0.50000000000E+03  0.00000000000E+00 0. -1.
        -11   -1    0    0    0    0 -0.00000000000E+00 -0.00000000000E+00 -0.50000000000E+03  0.50000000000E+03  0.00000000000E+00 0.  1.
          5    1    1    2  501    0  0.22807758523E+03  0.36750063967E+02  0.44340495928E+03  0.50000000000E+03  0.47000000000E+01 0. -1.
         -5    1    1    2    0  501 -0.22807758523E+03 -0.36750063967E+02 -0.44340495928E+03  0.50000000000E+03  0.47000000000E+01 0.  1.
</event>
<event>
 4    1  0.4903958E-004  0.1000000E+04  0.7546771E-02  0.8684367E-01
         11   -1    0    0    0    0  0.00000000000E+00  0.00000000000E+00  0.50000000000E+03  0.50000000000E+03  0.00000000000E+00 0. -1.
        -11   -1    0    0    0    0 -0.00000000000E+00 -0.00000000000E+00 -0.50000000000E+03  0.50000000000E+03  0.00000000000E+00 0.  1.
          5    1    1    2  501    0  0.11024408741E+03  0.36702173170E+03  0.32112178321E+03  0.50000000000E+03  0.47000000000E+01 0. -1.
         -5    1    1    2    0  501 -0.11024408741E+03 -0.36702173170E+03 -0.32112178321E+03  0.50000000000E+03  0.47000000000E+01 0.  1.
</event>
<event>
 4    1  0.4903958E-004  0.1000000E+04  0.7546771E-02  0.8684367E-01
         11   -1    0    0    0    0  0.00000000000E+00  0.00000000000E+00  0.50000000000E+03  0.50000000000E+03  0.00000000000E+00 0. -1.
        -11   -1    0    0    0    0 -0.00000000000E+00 -0.00000000000E+00 -0.50000000000E+03  0.50000000000E+03  0.00000000000E+00 0.  1.
          5    1    1    2  501    0 -0.34800880769E+03 -0.12179611015E+03  0.33768844713E+03  0.50000000000E+03  0.47000000000E+01 0. -1.
         -5    1    1    2    0  501  0.34800880769E+03  0.12179611015E+03 -0.33768844713E+03  0.50000000000E+03  0.47000000000E+01 0.  1.
</event>
<event>
 4    1  0.4903958E-004  0.1000000E+04  0.7546771E-02  0.8684367E-01
         11   -1    0    0    0    0  0.00000000000E+00  0.00000000000E+00  0.50000000000E+03  0.50000000000E+03  0.00000000000E+00 0. -1.
        -11   -1    0    0    0    0 -0.00000000000E+00 -0.00000000000E+00 -0.50000000000E+03  0.50000000000E+03  0.00000000000E+00 0.  1.
          5    1    1    2  501    0  0.14638859126E+03  0.58562531840E+02  0.47446677461E+03  0.50000000000E+03  0.47000000000E+01 0. -1.
         -5    1    1    2    0  501 -0.14638859126E+03 -0.58562531840E+02 -0.47446677461E+03  0.50000000000E+03  0.47000000000E+01 0.  1.
</event>
<event>
 4    1  0.4903958E-004  0.1000000E+04  0.7546771E-02  0.8684367E-01
         11   -1    0    0    0    0  0.00000000000E+00  0.00000000000E+00  0.50000000000E+03  0.50000000000E+03  0.00000000000E+00 0. -1.
        -11   -1    0    0    0    0 -0.00000000000E+00 -0.00000000000E+00 -0.50000000000E+03  0.50000000000E+03  0.00000000000E+00 0.  1.
          5    1    1    2  501    0  0.43714164981E+02 -0.24538555342E+03  0.43342001794E+03  0.50000000000E+03  0.47000000000E+01 0. -1.
         -5    1    1    2    0  501 -0.43714164981E+02  0.24538555342E+03 -0.43342001794E+03  0.50000000000E+03  0.47000000000E+01 0.  1.
</event>
<event>
 4    1  0.4903958E-004  0.1000000E+04  0.7546771E-02  0.8684367E-01
         11   -1    0    0    0    0  0.00000000000E+00  0.00000000000E+00  0.50000000000E+03  0.50000000000E+03  0.00000000000E+00 0. -1.
        -11   -1    0    0    0    0 -0.00000000000E+00 -0.00000000000E+00 -0.50000000000E+03  0.50000000000E+03  0.00000000000E+00 0.  1.
          5    1    1    2  501    0 -0.11559392349E+03 -0.41461761864E+03  0.25437803593E+03  0.50000000000E+03  0.47000000000E+01 0. -1.
         -5    1    1    2    0  501  0.11559392349E+03  0.41461761864E+03 -0.25437803593E+03  0.50000000000E+03  0.47000000000E+01 0.  1.
</event>
<event>
 4    1  0.4903958E-004  0.1000000E+04  0.7546771E-02  0.8684367E-01
         11   -1    0    0    0    0  0.00000000000E+00  0.00000000000E+00  0.50000000000E+03  0.50000000000E+03  0.00000000000E+00 0. -1.
        -11   -1    0    0    0    0 -0.00000000000E+00 -0.00000000000E+00 -0.50000000000E+03  0.50000000000E+03  0.00000000000E+00 0.  1.
          5    1    1    2  501    0 -0.34990078156E+02 -0.49178413233E+03  0.83078105528E+02  0.50000000000E+03  0.47000000000E+01 0. -1.
         -5    1    1    2    0  501  0.34990078156E+02  0.49178413233E+03 -0.83078105528E+02  0.50000000000E+03  0.47000000000E+01 0.  1.
</event>
<event>
 4    1  0.4903958E-004  0.1000000E+04  0.7546771E-02  0.8684367E-01
         11   -1    0    0    0    0  0.00000000000E+00  0.00000000000E+00  0.50000000000E+03  0.50000000000E+03  0.00000000000E+00 0. -1.
        -11   -1    0    0    0    0 -0.00000000000E+00 -0.00000000000E+00 -0.50000000000E+03  0.50000000000E+03  0.00000000000E+00 0.  1.
          5    1    1    2  501    0  0.25217382073E+03 -0.40102587192E+03 -0.15988909967E+03  0.50000000000E+03  0.47000000000E+01 0. -1.
         -5    1    1    2    0  501 -0.25217382073E+03  0.40102587192E+03  0.15988909967E+03  0.50000000000E+03  0.47000000000E+01 0.  1.
</event>
<event>
 4    1  0.4903958E-004  0.1000000E+04  0.7546771E-02  0.8684367E-01
         11   -1    0    0    0    0  0.00000000000E+00  0.00000000000E+00  0.50000000000E+03  0.50000000000E+03  0.00000000000E+00 0. -1.
        -11   -1    0    0    0    0 -0.00000000000E+00 -0.00000000000E+00 -0.50000000000E+03  0.50000000000E+03  0.00000000000E+00 0.  1.
          5    1    1    2  501    0 -0.29637873619E+03  0.40133041863E+03 -0.32733008053E+02  0.50000000000E+03  0.47000000000E+01 0. -1.
         -5    1    1    2    0  501  0.29637873619E+03 -0.40133041863E+03  0.32733008053E+02  0.50000000000E+03  0.47000000000E+01 0.  1.
</event>
<event>
 4    1  0.4903958E-004  0.1000000E+04  0.7546771E-02  0.8684367E-01
         11   -1    0    0    0    0  0.00000000000E+00  0.00000000000E+00  0.50000000000E+03  0.50000000000E+03  0.00000000000E+00 0.  1.
        -11   -1    0    0    0    0 -0.00000000000E+00 -0.00000000000E+00 -0.50000000000E+03  0.50000000000E+03  0.00000000000E+00 0. -1.
          5    1    1    2  501    0 -0.19577758207E+03  0.43380467510E+03  0.15317490728E+03  0.50000000000E+03  0.47000000000E+01 0.  1.
         -5    1    1    2    0  501  0.19577758207E+03 -0.43380467510E+03 -0.15317490728E+03  0.50000000000E+03  0.47000000000E+01 0. -1.
</event>
<event>
 4    1  0.4903958E-004  0.1000000E+04  0.7546771E-02  0.8684367E-01
         11   -1    0    0    0    0  0.00000000000E+00  0.00000000000E+00  0.50000000000E+03  0.50000000000E+03  0.00000000000E+00 0.  1.
        -11   -1    0    0    0    0 -0.00000000000E+00 -0.00000000000E+00 -0.50000000000E+03  0.50000000000E+03  0.00000000000E+00 0. -1.
          5    1    1    2  501    0 -0.23384402251E+03 -0.43035398807E+03 -0.10045062512E+03  0.50000000000E+03  0.47000000000E+01 0.  1.
         -5    1    1    2    0  501  0.23384402251E+03  0.43035398807E+03  0.10045062512E+03  0.50000000000E+03  0.47000000000E+01 0. -1.
</event>
<event>
 4    1  0.4903958E-004  0.1000000E+04  0.7546771E-02  0.8684367E-01
         11   -1    0    0    0    0  0.00000000000E+00  0.00000000000E+00  0.50000000000E+03  0.50000000000E+03  0.00000000000E+00 0. -1.
        -11   -1    0    0    0    0 -0.00000000000E+00 -0.00000000000E+00 -0.50000000000E+03  0.50000000000E+03  0.00000000000E+00 0.  1.
          5    1    1    2  501    0 -0.34617423298E+03  0.35936171108E+03  0.31630223308E+02  0.50000000000E+03  0.47000000000E+01 0. -1.
         -5    1    1    2    0  501  0.34617423298E+03 -0.35936171108E+03 -0.31630223308E+02  0.50000000000E+03  0.47000000000E+01 0.  1.
</event>
<event>
 4    1  0.4903958E-004  0.1000000E+04  0.7546771E-02  0.8684367E-01
         11   -1    0    0    0    0  0.00000000000E+00  0.00000000000E+00  0.50000000000E+03  0.50000000000E+03  0.00000000000E+00 0. -1.
        -11   -1    0    0    0    0 -0.00000000000E+00 -0.00000000000E+00 -0.50000000000E+03  0.50000000000E+03  0.00000000000E+00 0.  1.
          5    1    1    2  501    0 -0.16808730216E+03  0.20228533620E+03  0.42521196080E+03  0.50000000000E+03  0.47000000000E+01 0. -1.
         -5    1    1    2    0  501  0.16808730216E+03 -0.20228533620E+03 -0.42521196080E+03  0.50000000000E+03  0.47000000000E+01 0.  1.
</event>
<event>
 4    1  0.4903958E-004  0.1000000E+04  0.7546771E-02  0.8684367E-01
         11   -1    0    0    0    0  0.00000000000E+00  0.00000000000E+00  0.50000000000E+03  0.50000000000E+03  0.00000000000E+00 0. -1.
        -11   -1    0    0    0    0 -0.00000000000E+00 -0.00000000000E+00 -0.50000000000E+03  0.50000000000E+03  0.00000000000E+00 0.  1.
          5    1    1    2  501    0 -0.28678206062E+03  0.38681326466E+03  0.13457138623E+03  0.50000000000E+03  0.47000000000E+01 0. -1.
         -5    1    1    2    0  501  0.28678206062E+03 -0.38681326466E+03 -0.13457138623E+03  0.50000000000E+03  0.47000000000E+01 0.  1.
</event>
<event>
 4    1  0.4903958E-004  0.1000000E+04  0.7546771E-02  0.8684367E-01
         11   -1    0    0    0    0  0.00000000000E+00  0.00000000000E+00  0.50000000000E+03  0.50000000000E+03  0.00000000000E+00 0. -1.
        -11   -1    0    0    0    0 -0.00000000000E+00 -0.00000000000E+00 -0.50000000000E+03  0.50000000000E+03  0.00000000000E+00 0.  1.
          5    1    1    2  501    0 -0.37013710863E+03 -0.11880836230E+03  0.31442169751E+03  0.50000000000E+03  0.47000000000E+01 0. -1.
         -5    1    1    2    0  501  0.37013710863E+03  0.11880836230E+03 -0.31442169751E+03  0.50000000000E+03  0.47000000000E+01 0.  1.
</event>
<event>
 4    1  0.4903958E-004  0.1000000E+04  0.7546771E-02  0.8684367E-01
         11   -1    0    0    0    0  0.00000000000E+00  0.00000000000E+00  0.50000000000E+03  0.50000000000E+03  0.00000000000E+00 0. -1.
        -11   -1    0    0    0    0 -0.00000000000E+00 -0.00000000000E+00 -0.50000000000E+03  0.50000000000E+03  0.00000000000E+00 0.  1.
          5    1    1    2  501    0  0.27530011689E+03  0.41470524557E+03  0.46982070379E+02  0.50000000000E+03  0.47000000000E+01 0. -1.
         -5    1    1    2    0  501 -0.27530011689E+03 -0.41470524557E+03 -0.46982070379E+02  0.50000000000E+03  0.47000000000E+01 0.  1.
</event>
<event>
 4    1  0.4903958E-004  0.1000000E+04  0.7546771E-02  0.8684367E-01
         11   -1    0    0    0    0  0.00000000000E+00  0.00000000000E+00  0.50000000000E+03  0.50000000000E+03  0.00000000000E+00 0. -1.
        -11   -1    0    0    0    0 -0.00000000000E+00 -0.00000000000E+00 -0.50000000000E+03  0.50000000000E+03  0.00000000000E+00 0.  1.
          5    1    1    2  501    0 -0.66217062720E+02  0.24105292582E+03  0.43299734128E+03  0.50000000000E+03  0.47000000000E+01 0. -1.
         -5    1    1    2    0  501  0.66217062720E+02 -0.24105292582E+03 -0.43299734128E+03  0.50000000000E+03  0.47000000000E+01 0.  1.
</event>
<event>
 4    1  0.4903958E-004  0.1000000E+04  0.7546771E-02  0.8684367E-01
         11   -1    0    0    0    0  0.00000000000E+00  0.00000000000E+00  0.50000000000E+03  0.50000000000E+03  0.00000000000E+00 0. -1.
        -11   -1    0    0    0    0 -0.00000000000E+00 -0.00000000000E+00 -0.50000000000E+03  0.50000000000E+03  0.00000000000E+00 0.  1.
          5    1    1    2  501    0  0.14192699485E+03 -0.31991321654E+03  0.35705765923E+03  0.50000000000E+03  0.47000000000E+01 0. -1.
         -5    1    1    2    0  501 -0.14192699485E+03  0.31991321654E+03 -0.35705765923E+03  0.50000000000E+03  0.47000000000E+01 0.  1.
</event>
<event>
 4    1  0.4903958E-004  0.1000000E+04  0.7546771E-02  0.8684367E-01
         11   -1    0    0    0    0  0.00000000000E+00  0.00000000000E+00  0.50000000000E+03  0.50000000000E+03  0.00000000000E+00 0.  1.
        -11   -1    0    0    0    0 -0.00000000000E+00 -0.00000000000E+00 -0.50000000000E+03  0.50000000000E+03  0.00000000000E+00 0. -1.
          5    1    1    2  501    0  0.31446398408E+03 -0.28721016668E+03  0.26191722523E+03  0.50000000000E+03  0.47000000000E+01 0.  1.
         -5    1    1    2    0  501 -0.31446398408E+03  0.28721016668E+03 -0.26191722523E+03  0.50000000000E+03  0.47000000000E+01 0. -1.
</event>
<event>
 4    1  0.4903958E-004  0.1000000E+04  0.7546771E-02  0.8684367E-01
         11   -1    0    0    0    0  0.00000000000E+00  0.00000000000E+00  0.50000000000E+03  0.50000000000E+03  0.00000000000E+00 0. -1.
        -11   -1    0    0    0    0 -0.00000000000E+00 -0.00000000000E+00 -0.50000000000E+03  0.50000000000E+03  0.00000000000E+00 0.  1.
          5    1    1    2  501    0  0.16769058382E+02 -0.12589373301E+03  0.48357778761E+03  0.50000000000E+03  0.47000000000E+01 0. -1.
         -5    1    1    2    0  501 -0.16769058382E+02  0.12589373301E+03 -0.48357778761E+03  0.50000000000E+03  0.47000000000E+01 0.  1.
</event>
<event>
 4    1  0.4903958E-004  0.1000000E+04  0.7546771E-02  0.8684367E-01
         11   -1    0    0    0    0  0.00000000000E+00  0.00000000000E+00  0.50000000000E+03  0.50000000000E+03  0.00000000000E+00 0. -1.
        -11   -1    0    0    0    0 -0.00000000000E+00 -0.00000000000E+00 -0.50000000000E+03  0.50000000000E+03  0.00000000000E+00 0.  1.
          5    1    1    2  501    0  0.29423291827E+03  0.35565060279E+03  0.19213939873E+03  0.50000000000E+03  0.47000000000E+01 0. -1.
         -5    1    1    2    0  501 -0.29423291827E+03 -0.35565060279E+03 -0.19213939873E+03  0.50000000000E+03  0.47000000000E+01 0.  1.
</event>
<event>
 4    1  0.4903958E-004  0.1000000E+04  0.7546771E-02  0.8684367E-01
         11   -1    0    0    0    0  0.00000000000E+00  0.00000000000E+00  0.50000000000E+03  0.50000000000E+03  0.00000000000E+00 0. -1.
        -11   -1    0    0    0    0 -0.00000000000E+00 -0.00000000000E+00 -0.50000000000E+03  0.50000000000E+03  0.00000000000E+00 0.  1.
          5    1    1    2  501    0  0.40584433644E+03 -0.42716846476E+02  0.28886598208E+03  0.50000000000E+03  0.47000000000E+01 0. -1.
         -5    1    1    2    0  501 -0.40584433644E+03  0.42716846476E+02 -0.28886598208E+03  0.50000000000E+03  0.47000000000E+01 0.  1.
</event>
<event>
 4    1  0.4903958E-004  0.1000000E+04  0.7546771E-02  0.8684367E-01
         11   -1    0    0    0    0  0.00000000000E+00  0.00000000000E+00  0.50000000000E+03  0.50000000000E+03  0.00000000000E+00 0.  1.
        -11   -1    0    0    0    0 -0.00000000000E+00 -0.00000000000E+00 -0.50000000000E+03  0.50000000000E+03  0.00000000000E+00 0. -1.
          5    1    1    2  501    0 -0.18287821574E+03  0.18293835491E+03  0.42786332691E+03  0.50000000000E+03  0.47000000000E+01 0.  1.
         -5    1    1    2    0  501  0.18287821574E+03 -0.18293835491E+03 -0.42786332691E+03  0.50000000000E+03  0.47000000000E+01 0. -1.
</event>
<event>
 4    1  0.4903958E-004  0.1000000E+04  0.7546771E-02  0.8684367E-01
         11   -1    0    0    0    0  0.00000000000E+00  0.00000000000E+00  0.50000000000E+03  0.50000000000E+03  0.00000000000E+00 0. -1.
        -11   -1    0    0    0    0 -0.00000000000E+00 -0.00000000000E+00 -0.50000000000E+03  0.50000000000E+03  0.00000000000E+00 0.  1.
          5    1    1    2  501    0 -0.26709505356E+03 -0.41747001574E+03 -0.66007032362E+02  0.50000000000E+03  0.47000000000E+01 0. -1.
         -5    1    1    2    0  501  0.26709505356E+03  0.41747001574E+03  0.66007032362E+02  0.50000000000E+03  0.47000000000E+01 0.  1.
</event>
<event>
 4    1  0.4903958E-004  0.1000000E+04  0.7546771E-02  0.8684367E-01
         11   -1    0    0    0    0  0.00000000000E+00  0.00000000000E+00  0.50000000000E+03  0.50000000000E+03  0.00000000000E+00 0. -1.
        -11   -1    0    0    0    0 -0.00000000000E+00 -0.00000000000E+00 -0.50000000000E+03  0.50000000000E+03  0.00000000000E+00 0.  1.
          5    1    1    2  501    0  0.74862135712E+02  0.49175973551E+02  0.49188951428E+03  0.50000000000E+03  0.47000000000E+01 0. -1.
         -5    1    1    2    0  501 -0.74862135712E+02 -0.49175973551E+02 -0.49188951428E+03  0.50000000000E+03  0.47000000000E+01 0.  1.
</event>
<event>
 4    1  0.4903958E-004  0.1000000E+04  0.7546771E-02  0.8684367E-01
         11   -1    0    0    0    0  0.00000000000E+00  0.00000000000E+00  0.50000000000E+03  0.50000000000E+03  0.00000000000E+00 0. -1.
        -11   -1    0    0    0    0 -0.00000000000E+00 -0.00000000000E+00 -0.50000000000E+03  0.50000000000E+03  0.00000000000E+00 0.  1.
          5    1    1    2  501    0  0.22981118345E+03  0.40131796787E+03  0.19002267924E+03  0.50000000000E+03  0.47000000000E+01 0. -1.
         -5    1    1    2    0  501 -0.22981118345E+03 -0.40131796787E+03 -0.19002267924E+03  0.50000000000E+03  0.47000000000E+01 0.  1.
</event>
<event>
 4    1  0.4903958E-004  0.1000000E+04  0.7546771E-02  0.8684367E-01
         11   -1    0    0    0    0  0.00000000000E+00  0.00000000000E+00  0.50000000000E+03  0.50000000000E+03  0.00000000000E+00 0. -1.
        -11   -1    0    0    0    0 -0.00000000000E+00 -0.00000000000E+00 -0.50000000000E+03  0.50000000000E+03  0.00000000000E+00 0.  1.
          5    1    1    2  501    0 -0.84160112661E+02 -0.15365945557E+03  0.46827743609E+03  0.50000000000E+03  0.47000000000E+01 0. -1.
         -5    1    1    2    0  501  0.84160112661E+02  0.15365945557E+03 -0.46827743609E+03  0.50000000000E+03  0.47000000000E+01 0.  1.
</event>
<event>
 4    1  0.4903958E-004  0.1000000E+04  0.7546771E-02  0.8684367E-01
         11   -1    0    0    0    0  0.00000000000E+00  0.00000000000E+00  0.50000000000E+03  0.50000000000E+03  0.00000000000E+00 0. -1.
        -11   -1    0    0    0    0 -0.00000000000E+00 -0.00000000000E+00 -0.50000000000E+03  0.50000000000E+03  0.00000000000E+00 0.  1.
          5    1    1    2  501    0 -0.13078819974E+03 -0.42166877466E+03  0.23466529629E+03  0.50000000000E+03  0.47000000000E+01 0. -1.
         -5    1    1    2    0  501  0.13078819974E+03  0.42166877466E+03 -0.23466529629E+03  0.50000000000E+03  0.47000000000E+01 0.  1.
</event>
<event>
 4    1  0.4903958E-004  0.1000000E+04  0.7546771E-02  0.8684367E-01
         11   -1    0    0    0    0  0.00000000000E+00  0.00000000000E+00  0.50000000000E+03  0.50000000000E+03  0.00000000000E+00 0. -1.
        -11   -1    0    0    0    0 -0.00000000000E+00 -0.00000000000E+00 -0.50000000000E+03  0.50000000000E+03  0.00000000000E+00 0.  1.
          5    1    1    2  501    0 -0.22420121783E+03 -0.27333196804E+03  0.35355531274E+03  0.50000000000E+03  0.47000000000E+01 0. -1.
         -5    1    1    2    0  501  0.22420121783E+03  0.27333196804E+03 -0.35355531274E+03  0.50000000000E+03  0.47000000000E+01 0.  1.
</event>
<event>
 4    1  0.4903958E-004  0.1000000E+04  0.7546771E-02  0.8684367E-01
         11   -1    0    0    0    0  0.00000000000E+00  0.00000000000E+00  0.50000000000E+03  0.50000000000E+03  0.00000000000E+00 0. -1.
        -11   -1    0    0    0    0 -0.00000000000E+00 -0.00000000000E+00 -0.50000000000E+03  0.50000000000E+03  0.00000000000E+00 0.  1.
          5    1    1    2  501    0  0.16413299731E+03 -0.93212512342E+02  0.46297915367E+03  0.50000000000E+03  0.47000000000E+01 0. -1.
         -5    1    1    2    0  501 -0.16413299731E+03  0.93212512342E+02 -0.46297915367E+03  0.50000000000E+03  0.47000000000E+01 0.  1.
</event>
<event>
 4    1  0.4903958E-004  0.1000000E+04  0.7546771E-02  0.8684367E-01
         11   -1    0    0    0    0  0.00000000000E+00  0.00000000000E+00  0.50000000000E+03  0.50000000000E+03  0.00000000000E+00 0. -1.
        -11   -1    0    0    0    0 -0.00000000000E+00 -0.00000000000E+00 -0.50000000000E+03  0.50000000000E+03  0.00000000000E+00 0.  1.
          5    1    1    2  501    0  0.14558192268E+03  0.34314707808E+03  0.33321749143E+03  0.50000000000E+03  0.47000000000E+01 0. -1.
         -5    1    1    2    0  501 -0.14558192268E+03 -0.34314707808E+03 -0.33321749143E+03  0.50000000000E+03  0.47000000000E+01 0.  1.
</event>
<event>
 4    1  0.4903958E-004  0.1000000E+04  0.7546771E-02  0.8684367E-01
         11   -1    0    0    0    0  0.00000000000E+00  0.00000000000E+00  0.50000000000E+03  0.50000000000E+03  0.00000000000E+00 0.  1.
        -11   -1    0    0    0    0 -0.00000000000E+00 -0.00000000000E+00 -0.50000000000E+03  0.50000000000E+03  0.00000000000E+00 0. -1.
          5    1    1    2  501    0  0.24609760846E+03 -0.29941631551E+03  0.31585399652E+03  0.50000000000E+03  0.47000000000E+01 0.  1.
         -5    1    1    2    0  501 -0.24609760846E+03  0.29941631551E+03 -0.31585399652E+03  0.50000000000E+03  0.47000000000E+01 0. -1.
</event>
<event>
 4    1  0.4903958E-004  0.1000000E+04  0.7546771E-02  0.8684367E-01
         11   -1    0    0    0    0  0.00000000000E+00  0.00000000000E+00  0.50000000000E+03  0.50000000000E+03  0.00000000000E+00 0. -1.
        -11   -1    0    0    0    0 -0.00000000000E+00 -0.00000000000E+00 -0.50000000000E+03  0.50000000000E+03  0.00000000000E+00 0.  1.
          5    1    1    2  501    0 -0.16915472584E+03 -0.41694767181E+03  0.21798905408E+03  0.50000000000E+03  0.47000000000E+01 0. -1.
         -5    1    1    2    0  501  0.16915472584E+03  0.41694767181E+03 -0.21798905408E+03  0.50000000000E+03  0.47000000000E+01 0.  1.
</event>
<event>
 4    1  0.4903958E-004  0.1000000E+04  0.7546771E-02  0.8684367E-01
         11   -1    0    0    0    0  0.00000000000E+00  0.00000000000E+00  0.50000000000E+03  0.50000000000E+03  0.00000000000E+00 0. -1.
        -11   -1    0    0    0    0 -0.00000000000E+00 -0.00000000000E+00 -0.50000000000E+03  0.50000000000E+03  0.00000000000E+00 0.  1.
          5    1    1    2  501    0 -0.81081113430E+02 -0.22517286689E+03  0.43897715551E+03  0.50000000000E+03  0.47000000000E+01 0. -1.
         -5    1    1    2    0  501  0.81081113430E+02  0.22517286689E+03 -0.43897715551E+03  0.50000000000E+03  0.47000000000E+01 0.  1.
</event>
<event>
 4    1  0.4903958E-004  0.1000000E+04  0.7546771E-02  0.8684367E-01
         11   -1    0    0    0    0  0.00000000000E+00  0.00000000000E+00  0.50000000000E+03  0.50000000000E+03  0.00000000000E+00 0. -1.
        -11   -1    0    0    0    0 -0.00000000000E+00 -0.00000000000E+00 -0.50000000000E+03  0.50000000000E+03  0.00000000000E+00 0.  1.
          5    1    1    2  501    0 -0.89271352479E+02  0.20298394793E+00  0.49194358866E+03  0.50000000000E+03  0.47000000000E+01 0. -1.
         -5    1    1    2    0  501  0.89271352479E+02 -0.20298394793E+00 -0.49194358866E+03  0.50000000000E+03  0.47000000000E+01 0.  1.
</event>
<event>
 4    1  0.4903958E-004  0.1000000E+04  0.7546771E-02  0.8684367E-01
         11   -1    0    0    0    0  0.00000000000E+00  0.00000000000E+00  0.50000000000E+03  0.50000000000E+03  0.00000000000E+00 0. -1.
        -11   -1    0    0    0    0 -0.00000000000E+00 -0.00000000000E+00 -0.50000000000E+03  0.50000000000E+03  0.00000000000E+00 0.  1.
          5    1    1    2  501    0 -0.21048711999E+03  0.32919347375E+03  0.31193707564E+03  0.50000000000E+03  0.47000000000E+01 0. -1.
         -5    1    1    2    0  501  0.21048711999E+03 -0.32919347375E+03 -0.31193707564E+03  0.50000000000E+03  0.47000000000E+01 0.  1.
</event>
<event>
 4    1  0.4903958E-004  0.1000000E+04  0.7546771E-02  0.8684367E-01
         11   -1    0    0    0    0  0.00000000000E+00  0.00000000000E+00  0.50000000000E+03  0.50000000000E+03  0.00000000000E+00 0. -1.
        -11   -1    0    0    0    0 -0.00000000000E+00 -0.00000000000E+00 -0.50000000000E+03  0.50000000000E+03  0.00000000000E+00 0.  1.
          5    1    1    2  501    0 -0.16285141498E+03 -0.45978831243E+03  0.10978175803E+03  0.50000000000E+03  0.47000000000E+01 0. -1.
         -5    1    1    2    0  501  0.16285141498E+03  0.45978831243E+03 -0.10978175803E+03  0.50000000000E+03  0.47000000000E+01 0.  1.
</event>
<event>
 4    1  0.4903958E-004  0.1000000E+04  0.7546771E-02  0.8684367E-01
         11   -1    0    0    0    0  0.00000000000E+00  0.00000000000E+00  0.50000000000E+03  0.50000000000E+03  0.00000000000E+00 0.  1.
        -11   -1    0    0    0    0 -0.00000000000E+00 -0.00000000000E+00 -0.50000000000E+03  0.50000000000E+03  0.00000000000E+00 0. -1.
          5    1    1    2  501    0 -0.76800141345E+02  0.19481988921E+03  0.45400975657E+03  0.50000000000E+03  0.47000000000E+01 0.  1.
         -5    1    1    2    0  501  0.76800141345E+02 -0.19481988921E+03 -0.45400975657E+03  0.50000000000E+03  0.47000000000E+01 0. -1.
</event>
<event>
 4    1  0.4903958E-004  0.1000000E+04  0.7546771E-02  0.8684367E-01
         11   -1    0    0    0    0  0.00000000000E+00  0.00000000000E+00  0.50000000000E+03  0.50000000000E+03  0.00000000000E+00 0.  1.
        -11   -1    0    0    0    0 -0.00000000000E+00 -0.00000000000E+00 -0.50000000000E+03  0.50000000000E+03  0.00000000000E+00 0. -1.
          5    1    1    2  501    0 -0.41712543675E+03  0.26098963139E+03 -0.88705649885E+02  0.50000000000E+03  0.47000000000E+01 0.  1.
         -5    1    1    2    0  501  0.41712543675E+03 -0.26098963139E+03  0.88705649885E+02  0.50000000000E+03  0.47000000000E+01 0. -1.
</event>
<event>
 4    1  0.4903958E-004  0.1000000E+04  0.7546771E-02  0.8684367E-01
         11   -1    0    0    0    0  0.00000000000E+00  0.00000000000E+00  0.50000000000E+03  0.50000000000E+03  0.00000000000E+00 0. -1.
        -11   -1    0    0    0    0 -0.00000000000E+00 -0.00000000000E+00 -0.50000000000E+03  0.50000000000E+03  0.00000000000E+00 0.  1.
          5    1    1    2  501    0  0.18540111464E+03  0.41984984800E+03  0.19831904050E+03  0.50000000000E+03  0.47000000000E+01 0. -1.
         -5    1    1    2    0  501 -0.18540111464E+03 -0.41984984800E+03 -0.19831904050E+03  0.50000000000E+03  0.47000000000E+01 0.  1.
</event>
<event>
 4    1  0.4903958E-004  0.1000000E+04  0.7546771E-02  0.8684367E-01
         11   -1    0    0    0    0  0.00000000000E+00  0.00000000000E+00  0.50000000000E+03  0.50000000000E+03  0.00000000000E+00 0. -1.
        -11   -1    0    0    0    0 -0.00000000000E+00 -0.00000000000E+00 -0.50000000000E+03  0.50000000000E+03  0.00000000000E+00 0.  1.
          5    1    1    2  501    0  0.28638990020E+03  0.18323514709E+03  0.36658370931E+03  0.50000000000E+03  0.47000000000E+01 0. -1.
         -5    1    1    2    0  501 -0.28638990020E+03 -0.18323514709E+03 -0.36658370931E+03  0.50000000000E+03  0.47000000000E+01 0.  1.
</event>
<event>
 4    1  0.4903958E-004  0.1000000E+04  0.7546771E-02  0.8684367E-01
         11   -1    0    0    0    0  0.00000000000E+00  0.00000000000E+00  0.50000000000E+03  0.50000000000E+03  0.00000000000E+00 0. -1.
        -11   -1    0    0    0    0 -0.00000000000E+00 -0.00000000000E+00 -0.50000000000E+03  0.50000000000E+03  0.00000000000E+00 0.  1.
          5    1    1    2  501    0  0.39057651337E+02 -0.44895640049E+03  0.21654228301E+03  0.50000000000E+03  0.47000000000E+01 0. -1.
         -5    1    1    2    0  501 -0.39057651337E+02  0.44895640049E+03 -0.21654228301E+03  0.50000000000E+03  0.47000000000E+01 0.  1.
</event>
<event>
 4    1  0.4903958E-004  0.1000000E+04  0.7546771E-02  0.8684367E-01
         11   -1    0    0    0    0  0.00000000000E+00  0.00000000000E+00  0.50000000000E+03  0.50000000000E+03  0.00000000000E+00 0.  1.
        -11   -1    0    0    0    0 -0.00000000000E+00 -0.00000000000E+00 -0.50000000000E+03  0.50000000000E+03  0.00000000000E+00 0. -1.
          5    1    1    2  501    0  0.27246412773E+03 -0.76679517512E+00  0.41921429022E+03  0.50000000000E+03  0.47000000000E+01 0.  1.
         -5    1    1    2    0  501 -0.27246412773E+03  0.76679517512E+00 -0.41921429022E+03  0.50000000000E+03  0.47000000000E+01 0. -1.
</event>
<event>
 4    1  0.4903958E-004  0.1000000E+04  0.7546771E-02  0.8684367E-01
         11   -1    0    0    0    0  0.00000000000E+00  0.00000000000E+00  0.50000000000E+03  0.50000000000E+03  0.00000000000E+00 0. -1.
        -11   -1    0    0    0    0 -0.00000000000E+00 -0.00000000000E+00 -0.50000000000E+03  0.50000000000E+03  0.00000000000E+00 0.  1.
          5    1    1    2  501    0  0.24858218209E+03  0.32621465501E+03  0.28595245689E+03  0.50000000000E+03  0.47000000000E+01 0. -1.
         -5    1    1    2    0  501 -0.24858218209E+03 -0.32621465501E+03 -0.28595245689E+03  0.50000000000E+03  0.47000000000E+01 0.  1.
</event>
<event>
 4    1  0.4903958E-004  0.1000000E+04  0.7546771E-02  0.8684367E-01
         11   -1    0    0    0    0  0.00000000000E+00  0.00000000000E+00  0.50000000000E+03  0.50000000000E+03  0.00000000000E+00 0. -1.
        -11   -1    0    0    0    0 -0.00000000000E+00 -0.00000000000E+00 -0.50000000000E+03  0.50000000000E+03  0.00000000000E+00 0.  1.
          5    1    1    2  501    0  0.14090263211E+03  0.42840362317E+03  0.21585804113E+03  0.50000000000E+03  0.47000000000E+01 0. -1.
         -5    1    1    2    0  501 -0.14090263211E+03 -0.42840362317E+03 -0.21585804113E+03  0.50000000000E+03  0.47000000000E+01 0.  1.
</event>
<event>
 4    1  0.4903958E-004  0.1000000E+04  0.7546771E-02  0.8684367E-01
         11   -1    0    0    0    0  0.00000000000E+00  0.00000000000E+00  0.50000000000E+03  0.50000000000E+03  0.00000000000E+00 0. -1.
        -11   -1    0    0    0    0 -0.00000000000E+00 -0.00000000000E+00 -0.50000000000E+03  0.50000000000E+03  0.00000000000E+00 0.  1.
          5    1    1    2  501    0 -0.37162635287E+03 -0.96670785962E+02  0.32019763116E+03  0.50000000000E+03  0.47000000000E+01 0. -1.
         -5    1    1    2    0  501  0.37162635287E+03  0.96670785962E+02 -0.32019763116E+03  0.50000000000E+03  0.47000000000E+01 0.  1.
</event>
<event>
 4    1  0.4903958E-004  0.1000000E+04  0.7546771E-02  0.8684367E-01
         11   -1    0    0    0    0  0.00000000000E+00  0.00000000000E+00  0.50000000000E+03  0.50000000000E+03  0.00000000000E+00 0. -1.
        -11   -1    0    0    0    0 -0.00000000000E+00 -0.00000000000E+00 -0.50000000000E+03  0.50000000000E+03  0.00000000000E+00 0.  1.
          5    1    1    2  501    0  0.11695040889E+03  0.17427815490E+03  0.45379250389E+03  0.50000000000E+03  0.47000000000E+01 0. -1.
         -5    1    1    2    0  501 -0.11695040889E+03 -0.17427815490E+03 -0.45379250389E+03  0.50000000000E+03  0.47000000000E+01 0.  1.
</event>
<event>
 4    1  0.4903958E-004  0.1000000E+04  0.7546771E-02  0.8684367E-01
         11   -1    0    0    0    0  0.00000000000E+00  0.00000000000E+00  0.50000000000E+03  0.50000000000E+03  0.00000000000E+00 0. -1.
        -11   -1    0    0    0    0 -0.00000000000E+00 -0.00000000000E+00 -0.50000000000E+03  0.50000000000E+03  0.00000000000E+00 0.  1.
          5    1    1    2  501    0  0.16591223357E+03 -0.18585595165E+03  0.43348426268E+03  0.50000000000E+03  0.47000000000E+01 0. -1.
         -5    1    1    2    0  501 -0.16591223357E+03  0.18585595165E+03 -0.43348426268E+03  0.50000000000E+03  0.47000000000E+01 0.  1.
</event>
<event>
 4    1  0.4903958E-004  0.1000000E+04  0.7546771E-02  0.8684367E-01
         11   -1    0    0    0    0  0.00000000000E+00  0.00000000000E+00  0.50000000000E+03  0.50000000000E+03  0.00000000000E+00 0. -1.
        -11   -1    0    0    0    0 -0.00000000000E+00 -0.00000000000E+00 -0.50000000000E+03  0.50000000000E+03  0.00000000000E+00 0.  1.
          5    1    1    2  501    0 -0.32053031843E+03 -0.37882701891E+03 -0.61059927233E+02  0.50000000000E+03  0.47000000000E+01 0. -1.
         -5    1    1    2    0  501  0.32053031843E+03  0.37882701891E+03  0.61059927233E+02  0.50000000000E+03  0.47000000000E+01 0.  1.
</event>
<event>
 4    1  0.4903958E-004  0.1000000E+04  0.7546771E-02  0.8684367E-01
         11   -1    0    0    0    0  0.00000000000E+00  0.00000000000E+00  0.50000000000E+03  0.50000000000E+03  0.00000000000E+00 0. -1.
        -11   -1    0    0    0    0 -0.00000000000E+00 -0.00000000000E+00 -0.50000000000E+03  0.50000000000E+03  0.00000000000E+00 0.  1.
          5    1    1    2  501    0  0.71920393953E+02 -0.48083541698E+03  0.11663047935E+03  0.50000000000E+03  0.47000000000E+01 0. -1.
         -5    1    1    2    0  501 -0.71920393953E+02  0.48083541698E+03 -0.11663047935E+03  0.50000000000E+03  0.47000000000E+01 0.  1.
</event>
<event>
 4    1  0.4903958E-004  0.1000000E+04  0.7546771E-02  0.8684367E-01
         11   -1    0    0    0    0  0.00000000000E+00  0.00000000000E+00  0.50000000000E+03  0.50000000000E+03  0.00000000000E+00 0. -1.
        -11   -1    0    0    0    0 -0.00000000000E+00 -0.00000000000E+00 -0.50000000000E+03  0.50000000000E+03  0.00000000000E+00 0.  1.
          5    1    1    2  501    0  0.14918877606E+03  0.30554016975E+03  0.36655944097E+03  0.50000000000E+03  0.47000000000E+01 0. -1.
         -5    1    1    2    0  501 -0.14918877606E+03 -0.30554016975E+03 -0.36655944097E+03  0.50000000000E+03  0.47000000000E+01 0.  1.
</event>
<event>
 4    1  0.4903958E-004  0.1000000E+04  0.7546771E-02  0.8684367E-01
         11   -1    0    0    0    0  0.00000000000E+00  0.00000000000E+00  0.50000000000E+03  0.50000000000E+03  0.00000000000E+00 0. -1.
        -11   -1    0    0    0    0 -0.00000000000E+00 -0.00000000000E+00 -0.50000000000E+03  0.50000000000E+03  0.00000000000E+00 0.  1.
          5    1    1    2  501    0 -0.23261742792E+03  0.42824915562E+03  0.11166782411E+03  0.50000000000E+03  0.47000000000E+01 0. -1.
         -5    1    1    2    0  501  0.23261742792E+03 -0.42824915562E+03 -0.11166782411E+03  0.50000000000E+03  0.47000000000E+01 0.  1.
</event>
<event>
 4    1  0.4903958E-004  0.1000000E+04  0.7546771E-02  0.8684367E-01
         11   -1    0    0    0    0  0.00000000000E+00  0.00000000000E+00  0.50000000000E+03  0.50000000000E+03  0.00000000000E+00 0. -1.
        -11   -1    0    0    0    0 -0.00000000000E+00 -0.00000000000E+00 -0.50000000000E+03  0.50000000000E+03  0.00000000000E+00 0.  1.
          5    1    1    2  501    0  0.76811586763E+02 -0.48616689309E+03 -0.87861494409E+02  0.50000000000E+03  0.47000000000E+01 0. -1.
         -5    1    1    2    0  501 -0.76811586763E+02  0.48616689309E+03  0.87861494409E+02  0.50000000000E+03  0.47000000000E+01 0.  1.
</event>
<event>
 4    1  0.4903958E-004  0.1000000E+04  0.7546771E-02  0.8684367E-01
         11   -1    0    0    0    0  0.00000000000E+00  0.00000000000E+00  0.50000000000E+03  0.50000000000E+03  0.00000000000E+00 0. -1.
        -11   -1    0    0    0    0 -0.00000000000E+00 -0.00000000000E+00 -0.50000000000E+03  0.50000000000E+03  0.00000000000E+00 0.  1.
          5    1    1    2  501    0 -0.17690907256E+03  0.46240077331E+03  0.69761127354E+02  0.50000000000E+03  0.47000000000E+01 0. -1.
         -5    1    1    2    0  501  0.17690907256E+03 -0.46240077331E+03 -0.69761127354E+02  0.50000000000E+03  0.47000000000E+01 0.  1.
</event>
<event>
 4    1  0.4903958E-004  0.1000000E+04  0.7546771E-02  0.8684367E-01
         11   -1    0    0    0    0  0.00000000000E+00  0.00000000000E+00  0.50000000000E+03  0.50000000000E+03  0.00000000000E+00 0. -1.
        -11   -1    0    0    0    0 -0.00000000000E+00 -0.00000000000E+00 -0.50000000000E+03  0.50000000000E+03  0.00000000000E+00 0.  1.
          5    1    1    2  501    0  0.48960350589E+03 -0.91248626141E+02  0.44045490699E+02  0.50000000000E+03  0.47000000000E+01 0. -1.
         -5    1    1    2    0  501 -0.48960350589E+03  0.91248626141E+02 -0.44045490699E+02  0.50000000000E+03  0.47000000000E+01 0.  1.
</event>
<event>
 4    1  0.4903958E-004  0.1000000E+04  0.7546771E-02  0.8684367E-01
         11   -1    0    0    0    0  0.00000000000E+00  0.00000000000E+00  0.50000000000E+03  0.50000000000E+03  0.00000000000E+00 0. -1.
        -11   -1    0    0    0    0 -0.00000000000E+00 -0.00000000000E+00 -0.50000000000E+03  0.50000000000E+03  0.00000000000E+00 0.  1.
          5    1    1    2  501    0 -0.38355130801E+03  0.26693508030E+03  0.17779754506E+03  0.50000000000E+03  0.47000000000E+01 0. -1.
         -5    1    1    2    0  501  0.38355130801E+03 -0.26693508030E+03 -0.17779754506E+03  0.50000000000E+03  0.47000000000E+01 0.  1.
</event>
<event>
 4    1  0.4903958E-004  0.1000000E+04  0.7546771E-02  0.8684367E-01
         11   -1    0    0    0    0  0.00000000000E+00  0.00000000000E+00  0.50000000000E+03  0.50000000000E+03  0.00000000000E+00 0. -1.
        -11   -1    0    0    0    0 -0.00000000000E+00 -0.00000000000E+00 -0.50000000000E+03  0.50000000000E+03  0.00000000000E+00 0.  1.
          5    1    1    2  501    0  0.41710957882E+03  0.27387304374E+03 -0.31481187509E+02  0.50000000000E+03  0.47000000000E+01 0. -1.
         -5    1    1    2    0  501 -0.41710957882E+03 -0.27387304374E+03  0.31481187509E+02  0.50000000000E+03  0.47000000000E+01 0.  1.
</event>
<event>
 4    1  0.4903958E-004  0.1000000E+04  0.7546771E-02  0.8684367E-01
         11   -1    0    0    0    0  0.00000000000E+00  0.00000000000E+00  0.50000000000E+03  0.50000000000E+03  0.00000000000E+00 0. -1.
        -11   -1    0    0    0    0 -0.00000000000E+00 -0.00000000000E+00 -0.50000000000E+03  0.50000000000E+03  0.00000000000E+00 0.  1.
          5    1    1    2  501    0  0.13959786455E+03  0.31500660062E+03  0.36229985893E+03  0.50000000000E+03  0.47000000000E+01 0. -1.
         -5    1    1    2    0  501 -0.13959786455E+03 -0.31500660062E+03 -0.36229985893E+03  0.50000000000E+03  0.47000000000E+01 0.  1.
</event>
<event>
 4    1  0.4903958E-004  0.1000000E+04  0.7546771E-02  0.8684367E-01
         11   -1    0    0    0    0  0.00000000000E+00  0.00000000000E+00  0.50000000000E+03  0.50000000000E+03  0.00000000000E+00 0. -1.
        -11   -1    0    0    0    0 -0.00000000000E+00 -0.00000000000E+00 -0.50000000000E+03  0.50000000000E+03  0.00000000000E+00 0.  1.
          5    1    1    2  501    0 -0.17726743386E+03  0.43601769868E+03  0.16864973564E+03  0.50000000000E+03  0.47000000000E+01 0. -1.
         -5    1    1    2    0  501  0.17726743386E+03 -0.43601769868E+03 -0.16864973564E+03  0.50000000000E+03  0.47000000000E+01 0.  1.
</event>
<event>
 4    1  0.4903958E-004  0.1000000E+04  0.7546771E-02  0.8684367E-01
         11   -1    0    0    0    0  0.00000000000E+00  0.00000000000E+00  0.50000000000E+03  0.50000000000E+03  0.00000000000E+00 0.  1.
        -11   -1    0    0    0    0 -0.00000000000E+00 -0.00000000000E+00 -0.50000000000E+03  0.50000000000E+03  0.00000000000E+00 0. -1.
          5    1    1    2  501    0 -0.42789724530E+03  0.61423781944E+02  0.25121500051E+03  0.50000000000E+03  0.47000000000E+01 0.  1.
         -5    1    1    2    0  501  0.42789724530E+03 -0.61423781944E+02 -0.25121500051E+03  0.50000000000E+03  0.47000000000E+01 0. -1.
</event>
<event>
 4    1  0.4903958E-004  0.1000000E+04  0.7546771E-02  0.8684367E-01
         11   -1    0    0    0    0  0.00000000000E+00  0.00000000000E+00  0.50000000000E+03  0.50000000000E+03  0.00000000000E+00 0. -1.
        -11   -1    0    0    0    0 -0.00000000000E+00 -0.00000000000E+00 -0.50000000000E+03  0.50000000000E+03  0.00000000000E+00 0.  1.
          5    1    1    2  501    0 -0.25633287916E+03 -0.20299945445E+03  0.37823615183E+03  0.50000000000E+03  0.47000000000E+01 0. -1.
         -5    1    1    2    0  501  0.25633287916E+03  0.20299945445E+03 -0.37823615183E+03  0.50000000000E+03  0.47000000000E+01 0.  1.
</event>
<event>
 4    1  0.4903958E-004  0.1000000E+04  0.7546771E-02  0.8684367E-01
         11   -1    0    0    0    0  0.00000000000E+00  0.00000000000E+00  0.50000000000E+03  0.50000000000E+03  0.00000000000E+00 0. -1.
        -11   -1    0    0    0    0 -0.00000000000E+00 -0.00000000000E+00 -0.50000000000E+03  0.50000000000E+03  0.00000000000E+00 0.  1.
          5    1    1    2  501    0 -0.76280227727E+02 -0.35851615975E+03  0.34003735098E+03  0.50000000000E+03  0.47000000000E+01 0. -1.
         -5    1    1    2    0  501  0.76280227727E+02  0.35851615975E+03 -0.34003735098E+03  0.50000000000E+03  0.47000000000E+01 0.  1.
</event>
<event>
 4    1  0.4903958E-004  0.1000000E+04  0.7546771E-02  0.8684367E-01
         11   -1    0    0    0    0  0.00000000000E+00  0.00000000000E+00  0.50000000000E+03  0.50000000000E+03  0.00000000000E+00 0. -1.
        -11   -1    0    0    0    0 -0.00000000000E+00 -0.00000000000E+00 -0.50000000000E+03  0.50000000000E+03  0.00000000000E+00 0.  1.
          5    1    1    2  501    0 -0.27146610382E+03 -0.37069294711E+03  0.19715679912E+03  0.50000000000E+03  0.47000000000E+01 0. -1.
         -5    1    1    2    0  501  0.27146610382E+03  0.37069294711E+03 -0.19715679912E+03  0.50000000000E+03  0.47000000000E+01 0.  1.
</event>
<event>
 4    1  0.4903958E-004  0.1000000E+04  0.7546771E-02  0.8684367E-01
         11   -1    0    0    0    0  0.00000000000E+00  0.00000000000E+00  0.50000000000E+03  0.50000000000E+03  0.00000000000E+00 0. -1.
        -11   -1    0    0    0    0 -0.00000000000E+00 -0.00000000000E+00 -0.50000000000E+03  0.50000000000E+03  0.00000000000E+00 0.  1.
          5    1    1    2  501    0 -0.37582931414E+03  0.20499108502E+03  0.25828064522E+03  0.50000000000E+03  0.47000000000E+01 0. -1.
         -5    1    1    2    0  501  0.37582931414E+03 -0.20499108502E+03 -0.25828064522E+03  0.50000000000E+03  0.47000000000E+01 0.  1.
</event>
<event>
 4    1  0.4903958E-004  0.1000000E+04  0.7546771E-02  0.8684367E-01
         11   -1    0    0    0    0  0.00000000000E+00  0.00000000000E+00  0.50000000000E+03  0.50000000000E+03  0.00000000000E+00 0. -1.
        -11   -1    0    0    0    0 -0.00000000000E+00 -0.00000000000E+00 -0.50000000000E+03  0.50000000000E+03  0.00000000000E+00 0.  1.
          5    1    1    2  501    0  0.15911627015E+03 -0.10931482804E+03  0.46120515061E+03  0.50000000000E+03  0.47000000000E+01 0. -1.
         -5    1    1    2    0  501 -0.15911627015E+03  0.10931482804E+03 -0.46120515061E+03  0.50000000000E+03  0.47000000000E+01 0.  1.
</event>
<event>
 4    1  0.4903958E-004  0.1000000E+04  0.7546771E-02  0.8684367E-01
         11   -1    0    0    0    0  0.00000000000E+00  0.00000000000E+00  0.50000000000E+03  0.50000000000E+03  0.00000000000E+00 0. -1.
        -11   -1    0    0    0    0 -0.00000000000E+00 -0.00000000000E+00 -0.50000000000E+03  0.50000000000E+03  0.00000000000E+00 0.  1.
          5    1    1    2  501    0  0.24545267638E+02  0.42483464332E+03  0.26247088538E+03  0.50000000000E+03  0.47000000000E+01 0. -1.
         -5    1    1    2    0  501 -0.24545267638E+02 -0.42483464332E+03 -0.26247088538E+03  0.50000000000E+03  0.47000000000E+01 0.  1.
</event>
<event>
 4    1  0.4903958E-004  0.1000000E+04  0.7546771E-02  0.8684367E-01
         11   -1    0    0    0    0  0.00000000000E+00  0.00000000000E+00  0.50000000000E+03  0.50000000000E+03  0.00000000000E+00 0. -1.
        -11   -1    0    0    0    0 -0.00000000000E+00 -0.00000000000E+00 -0.50000000000E+03  0.50000000000E+03  0.00000000000E+00 0.  1.
          5    1    1    2  501    0 -0.46880005171E+03 -0.17235096787E+03 -0.22350959547E+02  0.50000000000E+03  0.47000000000E+01 0. -1.
         -5    1    1    2    0  501  0.46880005171E+03  0.17235096787E+03  0.22350959547E+02  0.50000000000E+03  0.47000000000E+01 0.  1.
</event>
<event>
 4    1  0.4903958E-004  0.1000000E+04  0.7546771E-02  0.8684367E-01
         11   -1    0    0    0    0  0.00000000000E+00  0.00000000000E+00  0.50000000000E+03  0.50000000000E+03  0.00000000000E+00 0. -1.
        -11   -1    0    0    0    0 -0.00000000000E+00 -0.00000000000E+00 -0.50000000000E+03  0.50000000000E+03  0.00000000000E+00 0.  1.
          5    1    1    2  501    0  0.28982672364E+03  0.39392529381E+01  0.40738539806E+03  0.50000000000E+03  0.47000000000E+01 0. -1.
         -5    1    1    2    0  501 -0.28982672364E+03 -0.39392529381E+01 -0.40738539806E+03  0.50000000000E+03  0.47000000000E+01 0.  1.
</event>
<event>
 4    1  0.4903958E-004  0.1000000E+04  0.7546771E-02  0.8684367E-01
         11   -1    0    0    0    0  0.00000000000E+00  0.00000000000E+00  0.50000000000E+03  0.50000000000E+03  0.00000000000E+00 0.  1.
        -11   -1    0    0    0    0 -0.00000000000E+00 -0.00000000000E+00 -0.50000000000E+03  0.50000000000E+03  0.00000000000E+00 0. -1.
          5    1    1    2  501    0  0.40823531351E+03  0.16185593428E+03  0.23900731231E+03  0.50000000000E+03  0.47000000000E+01 0.  1.
         -5    1    1    2    0  501 -0.40823531351E+03 -0.16185593428E+03 -0.23900731231E+03  0.50000000000E+03  0.47000000000E+01 0. -1.
</event>
<event>
 4    1  0.4903958E-004  0.1000000E+04  0.7546771E-02  0.8684367E-01
         11   -1    0    0    0    0  0.00000000000E+00  0.00000000000E+00  0.50000000000E+03  0.50000000000E+03  0.00000000000E+00 0. -1.
        -11   -1    0    0    0    0 -0.00000000000E+00 -0.00000000000E+00 -0.50000000000E+03  0.50000000000E+03  0.00000000000E+00 0.  1.
          5    1    1    2  501    0  0.14164357069E+03  0.47604396266E+03 -0.57420854182E+02  0.50000000000E+03  0.47000000000E+01 0.  1.
         -5    1    1    2    0  501 -0.14164357069E+03 -0.47604396266E+03  0.57420854182E+02  0.50000000000E+03  0.47000000000E+01 0. -1.
</event>
<event>
 4    1  0.4903958E-004  0.1000000E+04  0.7546771E-02  0.8684367E-01
         11   -1    0    0    0    0  0.00000000000E+00  0.00000000000E+00  0.50000000000E+03  0.50000000000E+03  0.00000000000E+00 0. -1.
        -11   -1    0    0    0    0 -0.00000000000E+00 -0.00000000000E+00 -0.50000000000E+03  0.50000000000E+03  0.00000000000E+00 0.  1.
          5    1    1    2  501    0  0.84907660040E+02 -0.65479109718E+02  0.48834525231E+03  0.50000000000E+03  0.47000000000E+01 0. -1.
         -5    1    1    2    0  501 -0.84907660040E+02  0.65479109718E+02 -0.48834525231E+03  0.50000000000E+03  0.47000000000E+01 0.  1.
</event>
<event>
 4    1  0.4903958E-004  0.1000000E+04  0.7546771E-02  0.8684367E-01
         11   -1    0    0    0    0  0.00000000000E+00  0.00000000000E+00  0.50000000000E+03  0.50000000000E+03  0.00000000000E+00 0. -1.
        -11   -1    0    0    0    0 -0.00000000000E+00 -0.00000000000E+00 -0.50000000000E+03  0.50000000000E+03  0.00000000000E+00 0.  1.
          5    1    1    2  501    0  0.16020023442E+03  0.12822872802E+03 -0.45592892889E+03  0.50000000000E+03  0.47000000000E+01 0.  1.
         -5    1    1    2    0  501 -0.16020023442E+03 -0.12822872802E+03  0.45592892889E+03  0.50000000000E+03  0.47000000000E+01 0. -1.
</event>
<event>
 4    1  0.4903958E-004  0.1000000E+04  0.7546771E-02  0.8684367E-01
         11   -1    0    0    0    0  0.00000000000E+00  0.00000000000E+00  0.50000000000E+03  0.50000000000E+03  0.00000000000E+00 0. -1.
        -11   -1    0    0    0    0 -0.00000000000E+00 -0.00000000000E+00 -0.50000000000E+03  0.50000000000E+03  0.00000000000E+00 0.  1.
          5    1    1    2  501    0 -0.68530182672E+02 -0.28477370295E+03  0.40519805302E+03  0.50000000000E+03  0.47000000000E+01 0. -1.
         -5    1    1    2    0  501  0.68530182672E+02  0.28477370295E+03 -0.40519805302E+03  0.50000000000E+03  0.47000000000E+01 0.  1.
</event>
<event>
 4    1  0.4903958E-004  0.1000000E+04  0.7546771E-02  0.8684367E-01
         11   -1    0    0    0    0  0.00000000000E+00  0.00000000000E+00  0.50000000000E+03  0.50000000000E+03  0.00000000000E+00 0.  1.
        -11   -1    0    0    0    0 -0.00000000000E+00 -0.00000000000E+00 -0.50000000000E+03  0.50000000000E+03  0.00000000000E+00 0. -1.
          5    1    1    2  501    0  0.17788919001E+03  0.46192692461E+03 -0.70404988427E+02  0.50000000000E+03  0.47000000000E+01 0.  1.
         -5    1    1    2    0  501 -0.17788919001E+03 -0.46192692461E+03  0.70404988427E+02  0.50000000000E+03  0.47000000000E+01 0. -1.
</event>
<event>
 4    1  0.4903958E-004  0.1000000E+04  0.7546771E-02  0.8684367E-01
         11   -1    0    0    0    0  0.00000000000E+00  0.00000000000E+00  0.50000000000E+03  0.50000000000E+03  0.00000000000E+00 0. -1.
        -11   -1    0    0    0    0 -0.00000000000E+00 -0.00000000000E+00 -0.50000000000E+03  0.50000000000E+03  0.00000000000E+00 0.  1.
          5    1    1    2  501    0  0.25702444819E+03  0.22238911081E+03  0.36668709607E+03  0.50000000000E+03  0.47000000000E+01 0. -1.
         -5    1    1    2    0  501 -0.25702444819E+03 -0.22238911081E+03 -0.36668709607E+03  0.50000000000E+03  0.47000000000E+01 0.  1.
</event>
<event>
 4    1  0.4903958E-004  0.1000000E+04  0.7546771E-02  0.8684367E-01
         11   -1    0    0    0    0  0.00000000000E+00  0.00000000000E+00  0.50000000000E+03  0.50000000000E+03  0.00000000000E+00 0. -1.
        -11   -1    0    0    0    0 -0.00000000000E+00 -0.00000000000E+00 -0.50000000000E+03  0.50000000000E+03  0.00000000000E+00 0.  1.
          5    1    1    2  501    0  0.26003565129E+03 -0.37384077729E+03  0.20640359323E+03  0.50000000000E+03  0.47000000000E+01 0. -1.
         -5    1    1    2    0  501 -0.26003565129E+03  0.37384077729E+03 -0.20640359323E+03  0.50000000000E+03  0.47000000000E+01 0.  1.
</event>
<event>
 4    1  0.4903958E-004  0.1000000E+04  0.7546771E-02  0.8684367E-01
         11   -1    0    0    0    0  0.00000000000E+00  0.00000000000E+00  0.50000000000E+03  0.50000000000E+03  0.00000000000E+00 0. -1.
        -11   -1    0    0    0    0 -0.00000000000E+00 -0.00000000000E+00 -0.50000000000E+03  0.50000000000E+03  0.00000000000E+00 0.  1.
          5    1    1    2  501    0 -0.49114390001E+03 -0.91633585182E+02 -0.18943746881E+02  0.50000000000E+03  0.47000000000E+01 0. -1.
         -5    1    1    2    0  501  0.49114390001E+03  0.91633585182E+02  0.18943746881E+02  0.50000000000E+03  0.47000000000E+01 0.  1.
</event>
<event>
 4    1  0.4903958E-004  0.1000000E+04  0.7546771E-02  0.8684367E-01
         11   -1    0    0    0    0  0.00000000000E+00  0.00000000000E+00  0.50000000000E+03  0.50000000000E+03  0.00000000000E+00 0. -1.
        -11   -1    0    0    0    0 -0.00000000000E+00 -0.00000000000E+00 -0.50000000000E+03  0.50000000000E+03  0.00000000000E+00 0.  1.
          5    1    1    2  501    0  0.29277687194E+03 -0.27214436374E+03  0.30032825132E+03  0.50000000000E+03  0.47000000000E+01 0. -1.
         -5    1    1    2    0  501 -0.29277687194E+03  0.27214436374E+03 -0.30032825132E+03  0.50000000000E+03  0.47000000000E+01 0.  1.
</event>
<event>
 4    1  0.4903958E-004  0.1000000E+04  0.7546771E-02  0.8684367E-01
         11   -1    0    0    0    0  0.00000000000E+00  0.00000000000E+00  0.50000000000E+03  0.50000000000E+03  0.00000000000E+00 0. -1.
        -11   -1    0    0    0    0 -0.00000000000E+00 -0.00000000000E+00 -0.50000000000E+03  0.50000000000E+03  0.00000000000E+00 0.  1.
          5    1    1    2  501    0 -0.21360716627E+03 -0.45148753314E+03 -0.22558722000E+02  0.50000000000E+03  0.47000000000E+01 0. -1.
         -5    1    1    2    0  501  0.21360716627E+03  0.45148753314E+03  0.22558722000E+02  0.50000000000E+03  0.47000000000E+01 0.  1.
</event>
<event>
 4    1  0.4903958E-004  0.1000000E+04  0.7546771E-02  0.8684367E-01
         11   -1    0    0    0    0  0.00000000000E+00  0.00000000000E+00  0.50000000000E+03  0.50000000000E+03  0.00000000000E+00 0. -1.
        -11   -1    0    0    0    0 -0.00000000000E+00 -0.00000000000E+00 -0.50000000000E+03  0.50000000000E+03  0.00000000000E+00 0.  1.
          5    1    1    2  501    0  0.16565112336E+02 -0.95729450480E+02  0.49044814136E+03  0.50000000000E+03  0.47000000000E+01 0. -1.
         -5    1    1    2    0  501 -0.16565112336E+02  0.95729450480E+02 -0.49044814136E+03  0.50000000000E+03  0.47000000000E+01 0.  1.
</event>
<event>
 4    1  0.4903958E-004  0.1000000E+04  0.7546771E-02  0.8684367E-01
         11   -1    0    0    0    0  0.00000000000E+00  0.00000000000E+00  0.50000000000E+03  0.50000000000E+03  0.00000000000E+00 0. -1.
        -11   -1    0    0    0    0 -0.00000000000E+00 -0.00000000000E+00 -0.50000000000E+03  0.50000000000E+03  0.00000000000E+00 0.  1.
          5    1    1    2  501    0  0.31833526864E+03  0.80398125779E+02  0.37706326805E+03  0.50000000000E+03  0.47000000000E+01 0. -1.
         -5    1    1    2    0  501 -0.31833526864E+03 -0.80398125779E+02 -0.37706326805E+03  0.50000000000E+03  0.47000000000E+01 0.  1.
</event>
<event>
 4    1  0.4903958E-004  0.1000000E+04  0.7546771E-02  0.8684367E-01
         11   -1    0    0    0    0  0.00000000000E+00  0.00000000000E+00  0.50000000000E+03  0.50000000000E+03  0.00000000000E+00 0. -1.
        -11   -1    0    0    0    0 -0.00000000000E+00 -0.00000000000E+00 -0.50000000000E+03  0.50000000000E+03  0.00000000000E+00 0.  1.
          5    1    1    2  501    0 -0.41564795740E+03  0.19734198360E+03  0.19562931022E+03  0.50000000000E+03  0.47000000000E+01 0. -1.
         -5    1    1    2    0  501  0.41564795740E+03 -0.19734198360E+03 -0.19562931022E+03  0.50000000000E+03  0.47000000000E+01 0.  1.
</event>
<event>
 4    1  0.4903958E-004  0.1000000E+04  0.7546771E-02  0.8684367E-01
         11   -1    0    0    0    0  0.00000000000E+00  0.00000000000E+00  0.50000000000E+03  0.50000000000E+03  0.00000000000E+00 0. -1.
        -11   -1    0    0    0    0 -0.00000000000E+00 -0.00000000000E+00 -0.50000000000E+03  0.50000000000E+03  0.00000000000E+00 0.  1.
          5    1    1    2  501    0  0.38262803618E+03 -0.15656502728E+03  0.28117803642E+03  0.50000000000E+03  0.47000000000E+01 0. -1.
         -5    1    1    2    0  501 -0.38262803618E+03  0.15656502728E+03 -0.28117803642E+03  0.50000000000E+03  0.47000000000E+01 0.  1.
</event>
<event>
 4    1  0.4903958E-004  0.1000000E+04  0.7546771E-02  0.8684367E-01
         11   -1    0    0    0    0  0.00000000000E+00  0.00000000000E+00  0.50000000000E+03  0.50000000000E+03  0.00000000000E+00 0. -1.
        -11   -1    0    0    0    0 -0.00000000000E+00 -0.00000000000E+00 -0.50000000000E+03  0.50000000000E+03  0.00000000000E+00 0.  1.
          5    1    1    2  501    0  0.17101618602E+03  0.35649149585E+03  0.30601501190E+03  0.50000000000E+03  0.47000000000E+01 0. -1.
         -5    1    1    2    0  501 -0.17101618602E+03 -0.35649149585E+03 -0.30601501190E+03  0.50000000000E+03  0.47000000000E+01 0.  1.
</event>
<event>
 4    1  0.4903958E-004  0.1000000E+04  0.7546771E-02  0.8684367E-01
         11   -1    0    0    0    0  0.00000000000E+00  0.00000000000E+00  0.50000000000E+03  0.50000000000E+03  0.00000000000E+00 0. -1.
        -11   -1    0    0    0    0 -0.00000000000E+00 -0.00000000000E+00 -0.50000000000E+03  0.50000000000E+03  0.00000000000E+00 0.  1.
          5    1    1    2  501    0 -0.49191400185E+03 -0.56100464398E+02 -0.69651006317E+02  0.50000000000E+03  0.47000000000E+01 0. -1.
         -5    1    1    2    0  501  0.49191400185E+03  0.56100464398E+02  0.69651006317E+02  0.50000000000E+03  0.47000000000E+01 0.  1.
</event>
<event>
 4    1  0.4903958E-004  0.1000000E+04  0.7546771E-02  0.8684367E-01
         11   -1    0    0    0    0  0.00000000000E+00  0.00000000000E+00  0.50000000000E+03  0.50000000000E+03  0.00000000000E+00 0. -1.
        -11   -1    0    0    0    0 -0.00000000000E+00 -0.00000000000E+00 -0.50000000000E+03  0.50000000000E+03  0.00000000000E+00 0.  1.
          5    1    1    2  501    0 -0.34981813821E+03  0.36042698873E+02  0.35539570065E+03  0.50000000000E+03  0.47000000000E+01 0. -1.
         -5    1    1    2    0  501  0.34981813821E+03 -0.36042698873E+02 -0.35539570065E+03  0.50000000000E+03  0.47000000000E+01 0.  1.
</event>
<event>
 4    1  0.4903958E-004  0.1000000E+04  0.7546771E-02  0.8684367E-01
         11   -1    0    0    0    0  0.00000000000E+00  0.00000000000E+00  0.50000000000E+03  0.50000000000E+03  0.00000000000E+00 0.  1.
        -11   -1    0    0    0    0 -0.00000000000E+00 -0.00000000000E+00 -0.50000000000E+03  0.50000000000E+03  0.00000000000E+00 0. -1.
          5    1    1    2  501    0  0.13912094396E+03  0.29619563329E+02  0.47931821833E+03  0.50000000000E+03  0.47000000000E+01 0.  1.
         -5    1    1    2    0  501 -0.13912094396E+03 -0.29619563329E+02 -0.47931821833E+03  0.50000000000E+03  0.47000000000E+01 0. -1.
</event>
<event>
 4    1  0.4903958E-004  0.1000000E+04  0.7546771E-02  0.8684367E-01
         11   -1    0    0    0    0  0.00000000000E+00  0.00000000000E+00  0.50000000000E+03  0.50000000000E+03  0.00000000000E+00 0. -1.
        -11   -1    0    0    0    0 -0.00000000000E+00 -0.00000000000E+00 -0.50000000000E+03  0.50000000000E+03  0.00000000000E+00 0.  1.
          5    1    1    2  501    0 -0.45225427454E+03  0.20969242452E+03  0.38380571373E+02  0.50000000000E+03  0.47000000000E+01 0. -1.
         -5    1    1    2    0  501  0.45225427454E+03 -0.20969242452E+03 -0.38380571373E+02  0.50000000000E+03  0.47000000000E+01 0.  1.
</event>
<event>
 4    1  0.4903958E-004  0.1000000E+04  0.7546771E-02  0.8684367E-01
         11   -1    0    0    0    0  0.00000000000E+00  0.00000000000E+00  0.50000000000E+03  0.50000000000E+03  0.00000000000E+00 0. -1.
        -11   -1    0    0    0    0 -0.00000000000E+00 -0.00000000000E+00 -0.50000000000E+03  0.50000000000E+03  0.00000000000E+00 0.  1.
          5    1    1    2  501    0  0.25600705816E+03 -0.42862694546E+03  0.26781295749E+02  0.50000000000E+03  0.47000000000E+01 0. -1.
         -5    1    1    2    0  501 -0.25600705816E+03  0.42862694546E+03 -0.26781295749E+02  0.50000000000E+03  0.47000000000E+01 0.  1.
</event>
<event>
 4    1  0.4903958E-004  0.1000000E+04  0.7546771E-02  0.8684367E-01
         11   -1    0    0    0    0  0.00000000000E+00  0.00000000000E+00  0.50000000000E+03  0.50000000000E+03  0.00000000000E+00 0. -1.
        -11   -1    0    0    0    0 -0.00000000000E+00 -0.00000000000E+00 -0.50000000000E+03  0.50000000000E+03  0.00000000000E+00 0.  1.
          5    1    1    2  501    0  0.41678092351E+03 -0.27576567837E+03  0.14995413859E+02  0.50000000000E+03  0.47000000000E+01 0. -1.
         -5    1    1    2    0  501 -0.41678092351E+03  0.27576567837E+03 -0.14995413859E+02  0.50000000000E+03  0.47000000000E+01 0.  1.
</event>
<event>
 4    1  0.4903958E-004  0.1000000E+04  0.7546771E-02  0.8684367E-01
         11   -1    0    0    0    0  0.00000000000E+00  0.00000000000E+00  0.50000000000E+03  0.50000000000E+03  0.00000000000E+00 0.  1.
        -11   -1    0    0    0    0 -0.00000000000E+00 -0.00000000000E+00 -0.50000000000E+03  0.50000000000E+03  0.00000000000E+00 0. -1.
          5    1    1    2  501    0  0.42510880101E+03 -0.12074791578E+03 -0.23383831623E+03  0.50000000000E+03  0.47000000000E+01 0. -1.
         -5    1    1    2    0  501 -0.42510880101E+03  0.12074791578E+03  0.23383831623E+03  0.50000000000E+03  0.47000000000E+01 0.  1.
</event>
<event>
 4    1  0.4903958E-004  0.1000000E+04  0.7546771E-02  0.8684367E-01
         11   -1    0    0    0    0  0.00000000000E+00  0.00000000000E+00  0.50000000000E+03  0.50000000000E+03  0.00000000000E+00 0.  1.
        -11   -1    0    0    0    0 -0.00000000000E+00 -0.00000000000E+00 -0.50000000000E+03  0.50000000000E+03  0.00000000000E+00 0. -1.
          5    1    1    2  501    0 -0.12715197125E+03 -0.15385317130E+03  0.45840973799E+03  0.50000000000E+03  0.47000000000E+01 0.  1.
         -5    1    1    2    0  501  0.12715197125E+03  0.15385317130E+03 -0.45840973799E+03  0.50000000000E+03  0.47000000000E+01 0. -1.
</event>
<event>
 4    1  0.4903958E-004  0.1000000E+04  0.7546771E-02  0.8684367E-01
         11   -1    0    0    0    0  0.00000000000E+00  0.00000000000E+00  0.50000000000E+03  0.50000000000E+03  0.00000000000E+00 0. -1.
        -11   -1    0    0    0    0 -0.00000000000E+00 -0.00000000000E+00 -0.50000000000E+03  0.50000000000E+03  0.00000000000E+00 0.  1.
          5    1    1    2  501    0  0.91151013821E+02  0.44515037790E+02  0.48957922146E+03  0.50000000000E+03  0.47000000000E+01 0. -1.
         -5    1    1    2    0  501 -0.91151013821E+02 -0.44515037790E+02 -0.48957922146E+03  0.50000000000E+03  0.47000000000E+01 0.  1.
</event>
<event>
 4    1  0.4903958E-004  0.1000000E+04  0.7546771E-02  0.8684367E-01
         11   -1    0    0    0    0  0.00000000000E+00  0.00000000000E+00  0.50000000000E+03  0.50000000000E+03  0.00000000000E+00 0. -1.
        -11   -1    0    0    0    0 -0.00000000000E+00 -0.00000000000E+00 -0.50000000000E+03  0.50000000000E+03  0.00000000000E+00 0.  1.
          5    1    1    2  501    0  0.95181068832E+02  0.28472236004E+03  0.39981452178E+03  0.50000000000E+03  0.47000000000E+01 0. -1.
         -5    1    1    2    0  501 -0.95181068832E+02 -0.28472236004E+03 -0.39981452178E+03  0.50000000000E+03  0.47000000000E+01 0.  1.
</event>
<event>
 4    1  0.4903958E-004  0.1000000E+04  0.7546771E-02  0.8684367E-01
         11   -1    0    0    0    0  0.00000000000E+00  0.00000000000E+00  0.50000000000E+03  0.50000000000E+03  0.00000000000E+00 0. -1.
        -11   -1    0    0    0    0 -0.00000000000E+00 -0.00000000000E+00 -0.50000000000E+03  0.50000000000E+03  0.00000000000E+00 0.  1.
          5    1    1    2  501    0 -0.29288091486E+03  0.12696321138E+03  0.38481037235E+03  0.50000000000E+03  0.47000000000E+01 0. -1.
         -5    1    1    2    0  501  0.29288091486E+03 -0.12696321138E+03 -0.38481037235E+03  0.50000000000E+03  0.47000000000E+01 0.  1.
</event>
<event>
 4    1  0.4903958E-004  0.1000000E+04  0.7546771E-02  0.8684367E-01
         11   -1    0    0    0    0  0.00000000000E+00  0.00000000000E+00  0.50000000000E+03  0.50000000000E+03  0.00000000000E+00 0. -1.
        -11   -1    0    0    0    0 -0.00000000000E+00 -0.00000000000E+00 -0.50000000000E+03  0.50000000000E+03  0.00000000000E+00 0.  1.
          5    1    1    2  501    0 -0.33723311634E+03 -0.22176316891E+01  0.36911626536E+03  0.50000000000E+03  0.47000000000E+01 0. -1.
         -5    1    1    2    0  501  0.33723311634E+03  0.22176316891E+01 -0.36911626536E+03  0.50000000000E+03  0.47000000000E+01 0.  1.
</event>
<event>
 4    1  0.4903958E-004  0.1000000E+04  0.7546771E-02  0.8684367E-01
         11   -1    0    0    0    0  0.00000000000E+00  0.00000000000E+00  0.50000000000E+03  0.50000000000E+03  0.00000000000E+00 0. -1.
        -11   -1    0    0    0    0 -0.00000000000E+00 -0.00000000000E+00 -0.50000000000E+03  0.50000000000E+03  0.00000000000E+00 0.  1.
          5    1    1    2  501    0 -0.19824340367E+03  0.40586729955E+03  0.21435764055E+03  0.50000000000E+03  0.47000000000E+01 0. -1.
         -5    1    1    2    0  501  0.19824340367E+03 -0.40586729955E+03 -0.21435764055E+03  0.50000000000E+03  0.47000000000E+01 0.  1.
</event>
<event>
 4    1  0.4903958E-004  0.1000000E+04  0.7546771E-02  0.8684367E-01
         11   -1    0    0    0    0  0.00000000000E+00  0.00000000000E+00  0.50000000000E+03  0.50000000000E+03  0.00000000000E+00 0. -1.
        -11   -1    0    0    0    0 -0.00000000000E+00 -0.00000000000E+00 -0.50000000000E+03  0.50000000000E+03  0.00000000000E+00 0.  1.
          5    1    1    2  501    0  0.17219528421E+03  0.11726453085E+03  0.45450602185E+03  0.50000000000E+03  0.47000000000E+01 0. -1.
         -5    1    1    2    0  501 -0.17219528421E+03 -0.11726453085E+03 -0.45450602185E+03  0.50000000000E+03  0.47000000000E+01 0.  1.
</event>
<event>
 4    1  0.4903958E-004  0.1000000E+04  0.7546771E-02  0.8684367E-01
         11   -1    0    0    0    0  0.00000000000E+00  0.00000000000E+00  0.50000000000E+03  0.50000000000E+03  0.00000000000E+00 0. -1.
        -11   -1    0    0    0    0 -0.00000000000E+00 -0.00000000000E+00 -0.50000000000E+03  0.50000000000E+03  0.00000000000E+00 0.  1.
          5    1    1    2  501    0 -0.23437356600E+03 -0.37881535160E+03  0.22703715765E+03  0.50000000000E+03  0.47000000000E+01 0. -1.
         -5    1    1    2    0  501  0.23437356600E+03  0.37881535160E+03 -0.22703715765E+03  0.50000000000E+03  0.47000000000E+01 0.  1.
</event>
<event>
 4    1  0.4903958E-004  0.1000000E+04  0.7546771E-02  0.8684367E-01
         11   -1    0    0    0    0  0.00000000000E+00  0.00000000000E+00  0.50000000000E+03  0.50000000000E+03  0.00000000000E+00 0. -1.
        -11   -1    0    0    0    0 -0.00000000000E+00 -0.00000000000E+00 -0.50000000000E+03  0.50000000000E+03  0.00000000000E+00 0.  1.
          5    1    1    2  501    0 -0.25131854718E+03  0.13254691252E+03  0.41139787776E+03  0.50000000000E+03  0.47000000000E+01 0. -1.
         -5    1    1    2    0  501  0.25131854718E+03 -0.13254691252E+03 -0.41139787776E+03  0.50000000000E+03  0.47000000000E+01 0.  1.
</event>
<event>
 4    1  0.4903958E-004  0.1000000E+04  0.7546771E-02  0.8684367E-01
         11   -1    0    0    0    0  0.00000000000E+00  0.00000000000E+00  0.50000000000E+03  0.50000000000E+03  0.00000000000E+00 0. -1.
        -11   -1    0    0    0    0 -0.00000000000E+00 -0.00000000000E+00 -0.50000000000E+03  0.50000000000E+03  0.00000000000E+00 0.  1.
          5    1    1    2  501    0  0.26372403387E+03  0.67574063388E+02  0.41935818809E+03  0.50000000000E+03  0.47000000000E+01 0. -1.
         -5    1    1    2    0  501 -0.26372403387E+03 -0.67574063388E+02 -0.41935818809E+03  0.50000000000E+03  0.47000000000E+01 0.  1.
</event>
<event>
 4    1  0.4903958E-004  0.1000000E+04  0.7546771E-02  0.8684367E-01
         11   -1    0    0    0    0  0.00000000000E+00  0.00000000000E+00  0.50000000000E+03  0.50000000000E+03  0.00000000000E+00 0.  1.
        -11   -1    0    0    0    0 -0.00000000000E+00 -0.00000000000E+00 -0.50000000000E+03  0.50000000000E+03  0.00000000000E+00 0. -1.
          5    1    1    2  501    0 -0.98997614439E+02 -0.57226873788E+02 -0.48672627549E+03  0.50000000000E+03  0.47000000000E+01 0. -1.
         -5    1    1    2    0  501  0.98997614439E+02  0.57226873788E+02  0.48672627549E+03  0.50000000000E+03  0.47000000000E+01 0.  1.
</event>
<event>
 4    1  0.4903958E-004  0.1000000E+04  0.7546771E-02  0.8684367E-01
         11   -1    0    0    0    0  0.00000000000E+00  0.00000000000E+00  0.50000000000E+03  0.50000000000E+03  0.00000000000E+00 0. -1.
        -11   -1    0    0    0    0 -0.00000000000E+00 -0.00000000000E+00 -0.50000000000E+03  0.50000000000E+03  0.00000000000E+00 0.  1.
          5    1    1    2  501    0 -0.90532231247E+02 -0.21606579977E+03  0.44169830798E+03  0.50000000000E+03  0.47000000000E+01 0. -1.
         -5    1    1    2    0  501  0.90532231247E+02  0.21606579977E+03 -0.44169830798E+03  0.50000000000E+03  0.47000000000E+01 0.  1.
</event>
<event>
 4    1  0.4903958E-004  0.1000000E+04  0.7546771E-02  0.8684367E-01
         11   -1    0    0    0    0  0.00000000000E+00  0.00000000000E+00  0.50000000000E+03  0.50000000000E+03  0.00000000000E+00 0. -1.
        -11   -1    0    0    0    0 -0.00000000000E+00 -0.00000000000E+00 -0.50000000000E+03  0.50000000000E+03  0.00000000000E+00 0.  1.
          5    1    1    2  501    0 -0.35673616770E+03 -0.27266642999E+03  0.21993234098E+03  0.50000000000E+03  0.47000000000E+01 0. -1.
         -5    1    1    2    0  501  0.35673616770E+03  0.27266642999E+03 -0.21993234098E+03  0.50000000000E+03  0.47000000000E+01 0.  1.
</event>
<event>
 4    1  0.4903958E-004  0.1000000E+04  0.7546771E-02  0.8684367E-01
         11   -1    0    0    0    0  0.00000000000E+00  0.00000000000E+00  0.50000000000E+03  0.50000000000E+03  0.00000000000E+00 0. -1.
        -11   -1    0    0    0    0 -0.00000000000E+00 -0.00000000000E+00 -0.50000000000E+03  0.50000000000E+03  0.00000000000E+00 0.  1.
          5    1    1    2  501    0  0.25771316159E+03 -0.16025657492E+03  0.39734074362E+03  0.50000000000E+03  0.47000000000E+01 0. -1.
         -5    1    1    2    0  501 -0.25771316159E+03  0.16025657492E+03 -0.39734074362E+03  0.50000000000E+03  0.47000000000E+01 0.  1.
</event>
<event>
 4    1  0.4903958E-004  0.1000000E+04  0.7546771E-02  0.8684367E-01
         11   -1    0    0    0    0  0.00000000000E+00  0.00000000000E+00  0.50000000000E+03  0.50000000000E+03  0.00000000000E+00 0. -1.
        -11   -1    0    0    0    0 -0.00000000000E+00 -0.00000000000E+00 -0.50000000000E+03  0.50000000000E+03  0.00000000000E+00 0.  1.
          5    1    1    2  501    0  0.13376053975E+03 -0.34300249848E+02  0.48053045779E+03  0.50000000000E+03  0.47000000000E+01 0. -1.
         -5    1    1    2    0  501 -0.13376053975E+03  0.34300249848E+02 -0.48053045779E+03  0.50000000000E+03  0.47000000000E+01 0.  1.
</event>
<event>
 4    1  0.4903958E-004  0.1000000E+04  0.7546771E-02  0.8684367E-01
         11   -1    0    0    0    0  0.00000000000E+00  0.00000000000E+00  0.50000000000E+03  0.50000000000E+03  0.00000000000E+00 0. -1.
        -11   -1    0    0    0    0 -0.00000000000E+00 -0.00000000000E+00 -0.50000000000E+03  0.50000000000E+03  0.00000000000E+00 0.  1.
          5    1    1    2  501    0 -0.37615592011E+03 -0.28127968545E+03  0.17136619363E+03  0.50000000000E+03  0.47000000000E+01 0. -1.
         -5    1    1    2    0  501  0.37615592011E+03  0.28127968545E+03 -0.17136619363E+03  0.50000000000E+03  0.47000000000E+01 0.  1.
</event>
<event>
 4    1  0.4903958E-004  0.1000000E+04  0.7546771E-02  0.8684367E-01
         11   -1    0    0    0    0  0.00000000000E+00  0.00000000000E+00  0.50000000000E+03  0.50000000000E+03  0.00000000000E+00 0. -1.
        -11   -1    0    0    0    0 -0.00000000000E+00 -0.00000000000E+00 -0.50000000000E+03  0.50000000000E+03  0.00000000000E+00 0.  1.
          5    1    1    2  501    0  0.21572164628E+03 -0.12956010053E+01  0.45104368164E+03  0.50000000000E+03  0.47000000000E+01 0. -1.
         -5    1    1    2    0  501 -0.21572164628E+03  0.12956010053E+01 -0.45104368164E+03  0.50000000000E+03  0.47000000000E+01 0.  1.
</event>
<event>
 4    1  0.4903958E-004  0.1000000E+04  0.7546771E-02  0.8684367E-01
         11   -1    0    0    0    0  0.00000000000E+00  0.00000000000E+00  0.50000000000E+03  0.50000000000E+03  0.00000000000E+00 0. -1.
        -11   -1    0    0    0    0 -0.00000000000E+00 -0.00000000000E+00 -0.50000000000E+03  0.50000000000E+03  0.00000000000E+00 0.  1.
          5    1    1    2  501    0  0.29882865992E+03  0.38716648918E+03  0.10383376940E+03  0.50000000000E+03  0.47000000000E+01 0. -1.
         -5    1    1    2    0  501 -0.29882865992E+03 -0.38716648918E+03 -0.10383376940E+03  0.50000000000E+03  0.47000000000E+01 0.  1.
</event>
<event>
 4    1  0.4903958E-004  0.1000000E+04  0.7546771E-02  0.8684367E-01
         11   -1    0    0    0    0  0.00000000000E+00  0.00000000000E+00  0.50000000000E+03  0.50000000000E+03  0.00000000000E+00 0. -1.
        -11   -1    0    0    0    0 -0.00000000000E+00 -0.00000000000E+00 -0.50000000000E+03  0.50000000000E+03  0.00000000000E+00 0.  1.
          5    1    1    2  501    0  0.37501483226E+03  0.33066814545E+03 -0.60264068300E+00  0.50000000000E+03  0.47000000000E+01 0. -1.
         -5    1    1    2    0  501 -0.37501483226E+03 -0.33066814545E+03  0.60264068300E+00  0.50000000000E+03  0.47000000000E+01 0.  1.
</event>
<event>
 4    1  0.4903958E-004  0.1000000E+04  0.7546771E-02  0.8684367E-01
         11   -1    0    0    0    0  0.00000000000E+00  0.00000000000E+00  0.50000000000E+03  0.50000000000E+03  0.00000000000E+00 0. -1.
        -11   -1    0    0    0    0 -0.00000000000E+00 -0.00000000000E+00 -0.50000000000E+03  0.50000000000E+03  0.00000000000E+00 0.  1.
          5    1    1    2  501    0 -0.34732630103E+02  0.14190155382E+03  0.47815845013E+03  0.50000000000E+03  0.47000000000E+01 0. -1.
         -5    1    1    2    0  501  0.34732630103E+02 -0.14190155382E+03 -0.47815845013E+03  0.50000000000E+03  0.47000000000E+01 0.  1.
</event>
<event>
 4    1  0.4903958E-004  0.1000000E+04  0.7546771E-02  0.8684367E-01
         11   -1    0    0    0    0  0.00000000000E+00  0.00000000000E+00  0.50000000000E+03  0.50000000000E+03  0.00000000000E+00 0.  1.
        -11   -1    0    0    0    0 -0.00000000000E+00 -0.00000000000E+00 -0.50000000000E+03  0.50000000000E+03  0.00000000000E+00 0. -1.
          5    1    1    2  501    0  0.69744779364E+02  0.40539927642E+03  0.28419184090E+03  0.50000000000E+03  0.47000000000E+01 0.  1.
         -5    1    1    2    0  501 -0.69744779364E+02 -0.40539927642E+03 -0.28419184090E+03  0.50000000000E+03  0.47000000000E+01 0. -1.
</event>
<event>
 4    1  0.4903958E-004  0.1000000E+04  0.7546771E-02  0.8684367E-01
         11   -1    0    0    0    0  0.00000000000E+00  0.00000000000E+00  0.50000000000E+03  0.50000000000E+03  0.00000000000E+00 0. -1.
        -11   -1    0    0    0    0 -0.00000000000E+00 -0.00000000000E+00 -0.50000000000E+03  0.50000000000E+03  0.00000000000E+00 0.  1.
          5    1    1    2  501    0  0.16921650675E+03 -0.18587893779E+03  0.43219521554E+03  0.50000000000E+03  0.47000000000E+01 0. -1.
         -5    1    1    2    0  501 -0.16921650675E+03  0.18587893779E+03 -0.43219521554E+03  0.50000000000E+03  0.47000000000E+01 0.  1.
</event>
<event>
 4    1  0.4903958E-004  0.1000000E+04  0.7546771E-02  0.8684367E-01
         11   -1    0    0    0    0  0.00000000000E+00  0.00000000000E+00  0.50000000000E+03  0.50000000000E+03  0.00000000000E+00 0. -1.
        -11   -1    0    0    0    0 -0.00000000000E+00 -0.00000000000E+00 -0.50000000000E+03  0.50000000000E+03  0.00000000000E+00 0.  1.
          5    1    1    2  501    0 -0.37004337761E+03 -0.91645024781E+02 -0.32349188262E+03  0.50000000000E+03  0.47000000000E+01 0.  1.
         -5    1    1    2    0  501  0.37004337761E+03  0.91645024781E+02  0.32349188262E+03  0.50000000000E+03  0.47000000000E+01 0. -1.
</event>
<event>
 4    1  0.4903958E-004  0.1000000E+04  0.7546771E-02  0.8684367E-01
         11   -1    0    0    0    0  0.00000000000E+00  0.00000000000E+00  0.50000000000E+03  0.50000000000E+03  0.00000000000E+00 0. -1.
        -11   -1    0    0    0    0 -0.00000000000E+00 -0.00000000000E+00 -0.50000000000E+03  0.50000000000E+03  0.00000000000E+00 0.  1.
          5    1    1    2  501    0  0.45733816441E+03 -0.88995926386E+02  0.18138202354E+03  0.50000000000E+03  0.47000000000E+01 0. -1.
         -5    1    1    2    0  501 -0.45733816441E+03  0.88995926386E+02 -0.18138202354E+03  0.50000000000E+03  0.47000000000E+01 0.  1.
</event>
<event>
 4    1  0.4903958E-004  0.1000000E+04  0.7546771E-02  0.8684367E-01
         11   -1    0    0    0    0  0.00000000000E+00  0.00000000000E+00  0.50000000000E+03  0.50000000000E+03  0.00000000000E+00 0.  1.
        -11   -1    0    0    0    0 -0.00000000000E+00 -0.00000000000E+00 -0.50000000000E+03  0.50000000000E+03  0.00000000000E+00 0. -1.
          5    1    1    2  501    0  0.40915873500E+03 -0.27947228422E+03 -0.66800313836E+02  0.50000000000E+03  0.47000000000E+01 0.  1.
         -5    1    1    2    0  501 -0.40915873500E+03  0.27947228422E+03  0.66800313836E+02  0.50000000000E+03  0.47000000000E+01 0. -1.
</event>
<event>
 4    1  0.4903958E-004  0.1000000E+04  0.7546771E-02  0.8684367E-01
         11   -1    0    0    0    0  0.00000000000E+00  0.00000000000E+00  0.50000000000E+03  0.50000000000E+03  0.00000000000E+00 0.  1.
        -11   -1    0    0    0    0 -0.00000000000E+00 -0.00000000000E+00 -0.50000000000E+03  0.50000000000E+03  0.00000000000E+00 0. -1.
          5    1    1    2  501    0 -0.20898578392E+03  0.11027387467E+02 -0.45407185428E+03  0.50000000000E+03  0.47000000000E+01 0. -1.
         -5    1    1    2    0  501  0.20898578392E+03 -0.11027387467E+02  0.45407185428E+03  0.50000000000E+03  0.47000000000E+01 0.  1.
</event>
<event>
 4    1  0.4903958E-004  0.1000000E+04  0.7546771E-02  0.8684367E-01
         11   -1    0    0    0    0  0.00000000000E+00  0.00000000000E+00  0.50000000000E+03  0.50000000000E+03  0.00000000000E+00 0.  1.
        -11   -1    0    0    0    0 -0.00000000000E+00 -0.00000000000E+00 -0.50000000000E+03  0.50000000000E+03  0.00000000000E+00 0. -1.
          5    1    1    2  501    0 -0.36929544423E+02 -0.34408552411E+03  0.36085907339E+03  0.50000000000E+03  0.47000000000E+01 0.  1.
         -5    1    1    2    0  501  0.36929544423E+02  0.34408552411E+03 -0.36085907339E+03  0.50000000000E+03  0.47000000000E+01 0. -1.
</event>
<event>
 4    1  0.4903958E-004  0.1000000E+04  0.7546771E-02  0.8684367E-01
         11   -1    0    0    0    0  0.00000000000E+00  0.00000000000E+00  0.50000000000E+03  0.50000000000E+03  0.00000000000E+00 0. -1.
        -11   -1    0    0    0    0 -0.00000000000E+00 -0.00000000000E+00 -0.50000000000E+03  0.50000000000E+03  0.00000000000E+00 0.  1.
          5    1    1    2  501    0 -0.59559206001E+01 -0.48802755602E+03  0.10849673534E+03  0.50000000000E+03  0.47000000000E+01 0. -1.
         -5    1    1    2    0  501  0.59559206001E+01  0.48802755602E+03 -0.10849673534E+03  0.50000000000E+03  0.47000000000E+01 0.  1.
</event>
<event>
 4    1  0.4903958E-004  0.1000000E+04  0.7546771E-02  0.8684367E-01
         11   -1    0    0    0    0  0.00000000000E+00  0.00000000000E+00  0.50000000000E+03  0.50000000000E+03  0.00000000000E+00 0. -1.
        -11   -1    0    0    0    0 -0.00000000000E+00 -0.00000000000E+00 -0.50000000000E+03  0.50000000000E+03  0.00000000000E+00 0.  1.
          5    1    1    2  501    0 -0.40190185218E+03  0.24448114216E+03  0.16935696721E+03  0.50000000000E+03  0.47000000000E+01 0. -1.
         -5    1    1    2    0  501  0.40190185218E+03 -0.24448114216E+03 -0.16935696721E+03  0.50000000000E+03  0.47000000000E+01 0.  1.
</event>
<event>
 4    1  0.4903958E-004  0.1000000E+04  0.7546771E-02  0.8684367E-01
         11   -1    0    0    0    0  0.00000000000E+00  0.00000000000E+00  0.50000000000E+03  0.50000000000E+03  0.00000000000E+00 0. -1.
        -11   -1    0    0    0    0 -0.00000000000E+00 -0.00000000000E+00 -0.50000000000E+03  0.50000000000E+03  0.00000000000E+00 0.  1.
          5    1    1    2  501    0  0.14787875114E+03 -0.13512884009E+03  0.45809385669E+03  0.50000000000E+03  0.47000000000E+01 0. -1.
         -5    1    1    2    0  501 -0.14787875114E+03  0.13512884009E+03 -0.45809385669E+03  0.50000000000E+03  0.47000000000E+01 0.  1.
</event>
<event>
 4    1  0.4903958E-004  0.1000000E+04  0.7546771E-02  0.8684367E-01
         11   -1    0    0    0    0  0.00000000000E+00  0.00000000000E+00  0.50000000000E+03  0.50000000000E+03  0.00000000000E+00 0.  1.
        -11   -1    0    0    0    0 -0.00000000000E+00 -0.00000000000E+00 -0.50000000000E+03  0.50000000000E+03  0.00000000000E+00 0. -1.
          5    1    1    2  501    0 -0.77141896216E+02  0.18170956578E+03  0.45935680201E+03  0.50000000000E+03  0.47000000000E+01 0.  1.
         -5    1    1    2    0  501  0.77141896216E+02 -0.18170956578E+03 -0.45935680201E+03  0.50000000000E+03  0.47000000000E+01 0. -1.
</event>
<event>
 4    1  0.4903958E-004  0.1000000E+04  0.7546771E-02  0.8684367E-01
         11   -1    0    0    0    0  0.00000000000E+00  0.00000000000E+00  0.50000000000E+03  0.50000000000E+03  0.00000000000E+00 0. -1.
        -11   -1    0    0    0    0 -0.00000000000E+00 -0.00000000000E+00 -0.50000000000E+03  0.50000000000E+03  0.00000000000E+00 0.  1.
          5    1    1    2  501    0 -0.21250605909E+03 -0.11054292660E+03  0.43886142030E+03  0.50000000000E+03  0.47000000000E+01 0. -1.
         -5    1    1    2    0  501  0.21250605909E+03  0.11054292660E+03 -0.43886142030E+03  0.50000000000E+03  0.47000000000E+01 0.  1.
</event>
<event>
 4    1  0.4903958E-004  0.1000000E+04  0.7546771E-02  0.8684367E-01
         11   -1    0    0    0    0  0.00000000000E+00  0.00000000000E+00  0.50000000000E+03  0.50000000000E+03  0.00000000000E+00 0. -1.
        -11   -1    0    0    0    0 -0.00000000000E+00 -0.00000000000E+00 -0.50000000000E+03  0.50000000000E+03  0.00000000000E+00 0.  1.
          5    1    1    2  501    0 -0.95752056876E+02 -0.38730605977E+03  0.30133614066E+03  0.50000000000E+03  0.47000000000E+01 0. -1.
         -5    1    1    2    0  501  0.95752056876E+02  0.38730605977E+03 -0.30133614066E+03  0.50000000000E+03  0.47000000000E+01 0.  1.
</event>
<event>
 4    1  0.4903958E-004  0.1000000E+04  0.7546771E-02  0.8684367E-01
         11   -1    0    0    0    0  0.00000000000E+00  0.00000000000E+00  0.50000000000E+03  0.50000000000E+03  0.00000000000E+00 0.  1.
        -11   -1    0    0    0    0 -0.00000000000E+00 -0.00000000000E+00 -0.50000000000E+03  0.50000000000E+03  0.00000000000E+00 0. -1.
          5    1    1    2  501    0  0.27923174939E+03  0.17152146842E+03  0.37760816464E+03  0.50000000000E+03  0.47000000000E+01 0.  1.
         -5    1    1    2    0  501 -0.27923174939E+03 -0.17152146842E+03 -0.37760816464E+03  0.50000000000E+03  0.47000000000E+01 0. -1.
</event>
<event>
 4    1  0.4903958E-004  0.1000000E+04  0.7546771E-02  0.8684367E-01
         11   -1    0    0    0    0  0.00000000000E+00  0.00000000000E+00  0.50000000000E+03  0.50000000000E+03  0.00000000000E+00 0. -1.
        -11   -1    0    0    0    0 -0.00000000000E+00 -0.00000000000E+00 -0.50000000000E+03  0.50000000000E+03  0.00000000000E+00 0.  1.
          5    1    1    2  501    0 -0.45822809381E+03 -0.16809663750E+03  0.10839024174E+03  0.50000000000E+03  0.47000000000E+01 0. -1.
         -5    1    1    2    0  501  0.45822809381E+03  0.16809663750E+03 -0.10839024174E+03  0.50000000000E+03  0.47000000000E+01 0.  1.
</event>
<event>
 4    1  0.4903958E-004  0.1000000E+04  0.7546771E-02  0.8684367E-01
         11   -1    0    0    0    0  0.00000000000E+00  0.00000000000E+00  0.50000000000E+03  0.50000000000E+03  0.00000000000E+00 0.  1.
        -11   -1    0    0    0    0 -0.00000000000E+00 -0.00000000000E+00 -0.50000000000E+03  0.50000000000E+03  0.00000000000E+00 0. -1.
          5    1    1    2  501    0 -0.92052091300E+02  0.10945347542E+03  0.47908690152E+03  0.50000000000E+03  0.47000000000E+01 0.  1.
         -5    1    1    2    0  501  0.92052091300E+02 -0.10945347542E+03 -0.47908690152E+03  0.50000000000E+03  0.47000000000E+01 0. -1.
</event>
<event>
 4    1  0.4903958E-004  0.1000000E+04  0.7546771E-02  0.8684367E-01
         11   -1    0    0    0    0  0.00000000000E+00  0.00000000000E+00  0.50000000000E+03  0.50000000000E+03  0.00000000000E+00 0. -1.
        -11   -1    0    0    0    0 -0.00000000000E+00 -0.00000000000E+00 -0.50000000000E+03  0.50000000000E+03  0.00000000000E+00 0.  1.
          5    1    1    2  501    0  0.19758977788E+03 -0.25715602374E+03  0.38053510894E+03  0.50000000000E+03  0.47000000000E+01 0. -1.
         -5    1    1    2    0  501 -0.19758977788E+03  0.25715602374E+03 -0.38053510894E+03  0.50000000000E+03  0.47000000000E+01 0.  1.
</event>
<event>
 4    1  0.4903958E-004  0.1000000E+04  0.7546771E-02  0.8684367E-01
         11   -1    0    0    0    0  0.00000000000E+00  0.00000000000E+00  0.50000000000E+03  0.50000000000E+03  0.00000000000E+00 0. -1.
        -11   -1    0    0    0    0 -0.00000000000E+00 -0.00000000000E+00 -0.50000000000E+03  0.50000000000E+03  0.00000000000E+00 0.  1.
          5    1    1    2  501    0 -0.74029202308E+02 -0.46498897921E+03  0.16817501722E+03  0.50000000000E+03  0.47000000000E+01 0. -1.
         -5    1    1    2    0  501  0.74029202308E+02  0.46498897921E+03 -0.16817501722E+03  0.50000000000E+03  0.47000000000E+01 0.  1.
</event>
<event>
 4    1  0.4903958E-004  0.1000000E+04  0.7546771E-02  0.8684367E-01
         11   -1    0    0    0    0  0.00000000000E+00  0.00000000000E+00  0.50000000000E+03  0.50000000000E+03  0.00000000000E+00 0. -1.
        -11   -1    0    0    0    0 -0.00000000000E+00 -0.00000000000E+00 -0.50000000000E+03  0.50000000000E+03  0.00000000000E+00 0.  1.
          5    1    1    2  501    0  0.27204423582E+03 -0.41947835009E+03 -0.27852403974E+01  0.50000000000E+03  0.47000000000E+01 0. -1.
         -5    1    1    2    0  501 -0.27204423582E+03  0.41947835009E+03  0.27852403974E+01  0.50000000000E+03  0.47000000000E+01 0.  1.
</event>
<event>
 4    1  0.4903958E-004  0.1000000E+04  0.7546771E-02  0.8684367E-01
         11   -1    0    0    0    0  0.00000000000E+00  0.00000000000E+00  0.50000000000E+03  0.50000000000E+03  0.00000000000E+00 0. -1.
        -11   -1    0    0    0    0 -0.00000000000E+00 -0.00000000000E+00 -0.50000000000E+03  0.50000000000E+03  0.00000000000E+00 0.  1.
          5    1    1    2  501    0 -0.42293783087E+03 -0.21953970847E+03 -0.15134007276E+03  0.50000000000E+03  0.47000000000E+01 0.  1.
         -5    1    1    2    0  501  0.42293783087E+03  0.21953970847E+03  0.15134007276E+03  0.50000000000E+03  0.47000000000E+01 0. -1.
</event>
<event>
 4    1  0.4903958E-004  0.1000000E+04  0.7546771E-02  0.8684367E-01
         11   -1    0    0    0    0  0.00000000000E+00  0.00000000000E+00  0.50000000000E+03  0.50000000000E+03  0.00000000000E+00 0.  1.
        -11   -1    0    0    0    0 -0.00000000000E+00 -0.00000000000E+00 -0.50000000000E+03  0.50000000000E+03  0.00000000000E+00 0. -1.
          5    1    1    2  501    0  0.47853191222E+02 -0.13791921689E+03  0.47819062277E+03  0.50000000000E+03  0.47000000000E+01 0.  1.
         -5    1    1    2    0  501 -0.47853191222E+02  0.13791921689E+03 -0.47819062277E+03  0.50000000000E+03  0.47000000000E+01 0. -1.
</event>
<event>
 4    1  0.4903958E-004  0.1000000E+04  0.7546771E-02  0.8684367E-01
         11   -1    0    0    0    0  0.00000000000E+00  0.00000000000E+00  0.50000000000E+03  0.50000000000E+03  0.00000000000E+00 0.  1.
        -11   -1    0    0    0    0 -0.00000000000E+00 -0.00000000000E+00 -0.50000000000E+03  0.50000000000E+03  0.00000000000E+00 0. -1.
          5    1    1    2  501    0  0.21099656930E+03 -0.41599353004E+03 -0.18002150069E+03  0.50000000000E+03  0.47000000000E+01 0. -1.
         -5    1    1    2    0  501 -0.21099656930E+03  0.41599353004E+03  0.18002150069E+03  0.50000000000E+03  0.47000000000E+01 0.  1.
</event>
<event>
 4    1  0.4903958E-004  0.1000000E+04  0.7546771E-02  0.8684367E-01
         11   -1    0    0    0    0  0.00000000000E+00  0.00000000000E+00  0.50000000000E+03  0.50000000000E+03  0.00000000000E+00 0.  1.
        -11   -1    0    0    0    0 -0.00000000000E+00 -0.00000000000E+00 -0.50000000000E+03  0.50000000000E+03  0.00000000000E+00 0. -1.
          5    1    1    2  501    0  0.31348608457E+03 -0.38715111908E+03  0.42642652070E+02  0.50000000000E+03  0.47000000000E+01 0.  1.
         -5    1    1    2    0  501 -0.31348608457E+03  0.38715111908E+03 -0.42642652070E+02  0.50000000000E+03  0.47000000000E+01 0. -1.
</event>
<event>
 4    1  0.4903958E-004  0.1000000E+04  0.7546771E-02  0.8684367E-01
         11   -1    0    0    0    0  0.00000000000E+00  0.00000000000E+00  0.50000000000E+03  0.50000000000E+03  0.00000000000E+00 0. -1.
        -11   -1    0    0    0    0 -0.00000000000E+00 -0.00000000000E+00 -0.50000000000E+03  0.50000000000E+03  0.00000000000E+00 0.  1.
          5    1    1    2  501    0  0.21392272893E+03  0.18754603825E+03  0.41114651839E+03  0.50000000000E+03  0.47000000000E+01 0. -1.
         -5    1    1    2    0  501 -0.21392272893E+03 -0.18754603825E+03 -0.41114651839E+03  0.50000000000E+03  0.47000000000E+01 0.  1.
</event>
<event>
 4    1  0.4903958E-004  0.1000000E+04  0.7546771E-02  0.8684367E-01
         11   -1    0    0    0    0  0.00000000000E+00  0.00000000000E+00  0.50000000000E+03  0.50000000000E+03  0.00000000000E+00 0. -1.
        -11   -1    0    0    0    0 -0.00000000000E+00 -0.00000000000E+00 -0.50000000000E+03  0.50000000000E+03  0.00000000000E+00 0.  1.
          5    1    1    2  501    0 -0.36158240159E+03 -0.15905265721E+03  0.30649360368E+03  0.50000000000E+03  0.47000000000E+01 0. -1.
         -5    1    1    2    0  501  0.36158240159E+03  0.15905265721E+03 -0.30649360368E+03  0.50000000000E+03  0.47000000000E+01 0.  1.
</event>
<event>
 4    1  0.4903958E-004  0.1000000E+04  0.7546771E-02  0.8684367E-01
         11   -1    0    0    0    0  0.00000000000E+00  0.00000000000E+00  0.50000000000E+03  0.50000000000E+03  0.00000000000E+00 0. -1.
        -11   -1    0    0    0    0 -0.00000000000E+00 -0.00000000000E+00 -0.50000000000E+03  0.50000000000E+03  0.00000000000E+00 0.  1.
          5    1    1    2  501    0 -0.38564333440E+03  0.31772675610E+03  0.17516766149E+02  0.50000000000E+03  0.47000000000E+01 0. -1.
         -5    1    1    2    0  501  0.38564333440E+03 -0.31772675610E+03 -0.17516766149E+02  0.50000000000E+03  0.47000000000E+01 0.  1.
</event>
<event>
 4    1  0.4903958E-004  0.1000000E+04  0.7546771E-02  0.8684367E-01
         11   -1    0    0    0    0  0.00000000000E+00  0.00000000000E+00  0.50000000000E+03  0.50000000000E+03  0.00000000000E+00 0. -1.
        -11   -1    0    0    0    0 -0.00000000000E+00 -0.00000000000E+00 -0.50000000000E+03  0.50000000000E+03  0.00000000000E+00 0.  1.
          5    1    1    2  501    0 -0.20979577595E+03  0.24298523109E+03  0.38330382187E+03  0.50000000000E+03  0.47000000000E+01 0. -1.
         -5    1    1    2    0  501  0.20979577595E+03 -0.24298523109E+03 -0.38330382187E+03  0.50000000000E+03  0.47000000000E+01 0.  1.
</event>
<event>
 4    1  0.4903958E-004  0.1000000E+04  0.7546771E-02  0.8684367E-01
         11   -1    0    0    0    0  0.00000000000E+00  0.00000000000E+00  0.50000000000E+03  0.50000000000E+03  0.00000000000E+00 0. -1.
        -11   -1    0    0    0    0 -0.00000000000E+00 -0.00000000000E+00 -0.50000000000E+03  0.50000000000E+03  0.00000000000E+00 0.  1.
          5    1    1    2  501    0  0.10934913225E+03  0.80191046210E+02  0.48123806311E+03  0.50000000000E+03  0.47000000000E+01 0. -1.
         -5    1    1    2    0  501 -0.10934913225E+03 -0.80191046210E+02 -0.48123806311E+03  0.50000000000E+03  0.47000000000E+01 0.  1.
</event>
<event>
 4    1  0.4903958E-004  0.1000000E+04  0.7546771E-02  0.8684367E-01
         11   -1    0    0    0    0  0.00000000000E+00  0.00000000000E+00  0.50000000000E+03  0.50000000000E+03  0.00000000000E+00 0.  1.
        -11   -1    0    0    0    0 -0.00000000000E+00 -0.00000000000E+00 -0.50000000000E+03  0.50000000000E+03  0.00000000000E+00 0. -1.
          5    1    1    2  501    0  0.40423283254E+02 -0.33958527406E+03  0.36472689757E+03  0.50000000000E+03  0.47000000000E+01 0.  1.
         -5    1    1    2    0  501 -0.40423283254E+02  0.33958527406E+03 -0.36472689757E+03  0.50000000000E+03  0.47000000000E+01 0. -1.
</event>
<event>
 4    1  0.4903958E-004  0.1000000E+04  0.7546771E-02  0.8684367E-01
         11   -1    0    0    0    0  0.00000000000E+00  0.00000000000E+00  0.50000000000E+03  0.50000000000E+03  0.00000000000E+00 0. -1.
        -11   -1    0    0    0    0 -0.00000000000E+00 -0.00000000000E+00 -0.50000000000E+03  0.50000000000E+03  0.00000000000E+00 0.  1.
          5    1    1    2  501    0 -0.88056789633E+02 -0.34084012345E+03  0.35503791635E+03  0.50000000000E+03  0.47000000000E+01 0. -1.
         -5    1    1    2    0  501  0.88056789633E+02  0.34084012345E+03 -0.35503791635E+03  0.50000000000E+03  0.47000000000E+01 0.  1.
</event>
<event>
 4    1  0.4903958E-004  0.1000000E+04  0.7546771E-02  0.8684367E-01
         11   -1    0    0    0    0  0.00000000000E+00  0.00000000000E+00  0.50000000000E+03  0.50000000000E+03  0.00000000000E+00 0.  1.
        -11   -1    0    0    0    0 -0.00000000000E+00 -0.00000000000E+00 -0.50000000000E+03  0.50000000000E+03  0.00000000000E+00 0. -1.
          5    1    1    2  501    0  0.70615334119E+02  0.36459517398E+03  0.33475624519E+03  0.50000000000E+03  0.47000000000E+01 0.  1.
         -5    1    1    2    0  501 -0.70615334119E+02 -0.36459517398E+03 -0.33475624519E+03  0.50000000000E+03  0.47000000000E+01 0. -1.
</event>
<event>
 4    1  0.4903958E-004  0.1000000E+04  0.7546771E-02  0.8684367E-01
         11   -1    0    0    0    0  0.00000000000E+00  0.00000000000E+00  0.50000000000E+03  0.50000000000E+03  0.00000000000E+00 0. -1.
        -11   -1    0    0    0    0 -0.00000000000E+00 -0.00000000000E+00 -0.50000000000E+03  0.50000000000E+03  0.00000000000E+00 0.  1.
          5    1    1    2  501    0  0.17033259781E+03  0.36870686112E+02  0.46862060201E+03  0.50000000000E+03  0.47000000000E+01 0. -1.
         -5    1    1    2    0  501 -0.17033259781E+03 -0.36870686112E+02 -0.46862060201E+03  0.50000000000E+03  0.47000000000E+01 0.  1.
</event>
<event>
 4    1  0.4903958E-004  0.1000000E+04  0.7546771E-02  0.8684367E-01
         11   -1    0    0    0    0  0.00000000000E+00  0.00000000000E+00  0.50000000000E+03  0.50000000000E+03  0.00000000000E+00 0. -1.
        -11   -1    0    0    0    0 -0.00000000000E+00 -0.00000000000E+00 -0.50000000000E+03  0.50000000000E+03  0.00000000000E+00 0.  1.
          5    1    1    2  501    0  0.34819786324E+03  0.25977501930E+02  0.35785657382E+03  0.50000000000E+03  0.47000000000E+01 0. -1.
         -5    1    1    2    0  501 -0.34819786324E+03 -0.25977501930E+02 -0.35785657382E+03  0.50000000000E+03  0.47000000000E+01 0.  1.
</event>
<event>
 4    1  0.4903958E-004  0.1000000E+04  0.7546771E-02  0.8684367E-01
         11   -1    0    0    0    0  0.00000000000E+00  0.00000000000E+00  0.50000000000E+03  0.50000000000E+03  0.00000000000E+00 0.  1.
        -11   -1    0    0    0    0 -0.00000000000E+00 -0.00000000000E+00 -0.50000000000E+03  0.50000000000E+03  0.00000000000E+00 0. -1.
          5    1    1    2  501    0  0.34545296375E+03 -0.36143683210E+03 -0.18910934730E+01  0.50000000000E+03  0.47000000000E+01 0. -1.
         -5    1    1    2    0  501 -0.34545296375E+03  0.36143683210E+03  0.18910934730E+01  0.50000000000E+03  0.47000000000E+01 0.  1.
</event>
<event>
 4    1  0.4903958E-004  0.1000000E+04  0.7546771E-02  0.8684367E-01
         11   -1    0    0    0    0  0.00000000000E+00  0.00000000000E+00  0.50000000000E+03  0.50000000000E+03  0.00000000000E+00 0. -1.
        -11   -1    0    0    0    0 -0.00000000000E+00 -0.00000000000E+00 -0.50000000000E+03  0.50000000000E+03  0.00000000000E+00 0.  1.
          5    1    1    2  501    0 -0.37901613655E+03 -0.71536143795E+02  0.31813088245E+03  0.50000000000E+03  0.47000000000E+01 0. -1.
         -5    1    1    2    0  501  0.37901613655E+03  0.71536143795E+02 -0.31813088245E+03  0.50000000000E+03  0.47000000000E+01 0.  1.
</event>
<event>
 4    1  0.4903958E-004  0.1000000E+04  0.7546771E-02  0.8684367E-01
         11   -1    0    0    0    0  0.00000000000E+00  0.00000000000E+00  0.50000000000E+03  0.50000000000E+03  0.00000000000E+00 0. -1.
        -11   -1    0    0    0    0 -0.00000000000E+00 -0.00000000000E+00 -0.50000000000E+03  0.50000000000E+03  0.00000000000E+00 0.  1.
          5    1    1    2  501    0 -0.25525701526E+03  0.10775970178E+03  0.41618458986E+03  0.50000000000E+03  0.47000000000E+01 0. -1.
         -5    1    1    2    0  501  0.25525701526E+03 -0.10775970178E+03 -0.41618458986E+03  0.50000000000E+03  0.47000000000E+01 0.  1.
</event>
<event>
 4    1  0.4903958E-004  0.1000000E+04  0.7546771E-02  0.8684367E-01
         11   -1    0    0    0    0  0.00000000000E+00  0.00000000000E+00  0.50000000000E+03  0.50000000000E+03  0.00000000000E+00 0. -1.
        -11   -1    0    0    0    0 -0.00000000000E+00 -0.00000000000E+00 -0.50000000000E+03  0.50000000000E+03  0.00000000000E+00 0.  1.
          5    1    1    2  501    0 -0.37719575029E+03  0.29164291055E+03  0.15048484538E+03  0.50000000000E+03  0.47000000000E+01 0. -1.
         -5    1    1    2    0  501  0.37719575029E+03 -0.29164291055E+03 -0.15048484538E+03  0.50000000000E+03  0.47000000000E+01 0.  1.
</event>
<event>
 4    1  0.4903958E-004  0.1000000E+04  0.7546771E-02  0.8684367E-01
         11   -1    0    0    0    0  0.00000000000E+00  0.00000000000E+00  0.50000000000E+03  0.50000000000E+03  0.00000000000E+00 0. -1.
        -11   -1    0    0    0    0 -0.00000000000E+00 -0.00000000000E+00 -0.50000000000E+03  0.50000000000E+03  0.00000000000E+00 0.  1.
          5    1    1    2  501    0  0.19327605217E+03  0.20001938487E+03  0.41546904016E+03  0.50000000000E+03  0.47000000000E+01 0. -1.
         -5    1    1    2    0  501 -0.19327605217E+03 -0.20001938487E+03 -0.41546904016E+03  0.50000000000E+03  0.47000000000E+01 0.  1.
</event>
<event>
 4    1  0.4903958E-004  0.1000000E+04  0.7546771E-02  0.8684367E-01
         11   -1    0    0    0    0  0.00000000000E+00  0.00000000000E+00  0.50000000000E+03  0.50000000000E+03  0.00000000000E+00 0.  1.
        -11   -1    0    0    0    0 -0.00000000000E+00 -0.00000000000E+00 -0.50000000000E+03  0.50000000000E+03  0.00000000000E+00 0. -1.
          5    1    1    2  501    0 -0.29141628823E+03  0.23736992959E+03  0.32971195532E+03  0.50000000000E+03  0.47000000000E+01 0.  1.
         -5    1    1    2    0  501  0.29141628823E+03 -0.23736992959E+03 -0.32971195532E+03  0.50000000000E+03  0.47000000000E+01 0. -1.
</event>
<event>
 4    1  0.4903958E-004  0.1000000E+04  0.7546771E-02  0.8684367E-01
         11   -1    0    0    0    0  0.00000000000E+00  0.00000000000E+00  0.50000000000E+03  0.50000000000E+03  0.00000000000E+00 0. -1.
        -11   -1    0    0    0    0 -0.00000000000E+00 -0.00000000000E+00 -0.50000000000E+03  0.50000000000E+03  0.00000000000E+00 0.  1.
          5    1    1    2  501    0  0.31046872997E+03 -0.81171287004E+02  0.38340357311E+03  0.50000000000E+03  0.47000000000E+01 0. -1.
         -5    1    1    2    0  501 -0.31046872997E+03  0.81171287004E+02 -0.38340357311E+03  0.50000000000E+03  0.47000000000E+01 0.  1.
</event>
<event>
 4    1  0.4903958E-004  0.1000000E+04  0.7546771E-02  0.8684367E-01
         11   -1    0    0    0    0  0.00000000000E+00  0.00000000000E+00  0.50000000000E+03  0.50000000000E+03  0.00000000000E+00 0. -1.
        -11   -1    0    0    0    0 -0.00000000000E+00 -0.00000000000E+00 -0.50000000000E+03  0.50000000000E+03  0.00000000000E+00 0.  1.
          5    1    1    2  501    0 -0.39792073754E+03  0.18628632659E+03  0.23860930653E+03  0.50000000000E+03  0.47000000000E+01 0. -1.
         -5    1    1    2    0  501  0.39792073754E+03 -0.18628632659E+03 -0.23860930653E+03  0.50000000000E+03  0.47000000000E+01 0.  1.
</event>
<event>
 4    1  0.4903958E-004  0.1000000E+04  0.7546771E-02  0.8684367E-01
         11   -1    0    0    0    0  0.00000000000E+00  0.00000000000E+00  0.50000000000E+03  0.50000000000E+03  0.00000000000E+00 0. -1.
        -11   -1    0    0    0    0 -0.00000000000E+00 -0.00000000000E+00 -0.50000000000E+03  0.50000000000E+03  0.00000000000E+00 0.  1.
          5    1    1    2  501    0 -0.27359197570E+03  0.41057450740E+03  0.80956251804E+02  0.50000000000E+03  0.47000000000E+01 0. -1.
         -5    1    1    2    0  501  0.27359197570E+03 -0.41057450740E+03 -0.80956251804E+02  0.50000000000E+03  0.47000000000E+01 0.  1.
</event>
<event>
 4    1  0.4903958E-004  0.1000000E+04  0.7546771E-02  0.8684367E-01
         11   -1    0    0    0    0  0.00000000000E+00  0.00000000000E+00  0.50000000000E+03  0.50000000000E+03  0.00000000000E+00 0. -1.
        -11   -1    0    0    0    0 -0.00000000000E+00 -0.00000000000E+00 -0.50000000000E+03  0.50000000000E+03  0.00000000000E+00 0.  1.
          5    1    1    2  501    0  0.44710654114E+03  0.16582135221E+01  0.22376528149E+03  0.50000000000E+03  0.47000000000E+01 0. -1.
         -5    1    1    2    0  501 -0.44710654114E+03 -0.16582135221E+01 -0.22376528149E+03  0.50000000000E+03  0.47000000000E+01 0.  1.
</event>
<event>
 4    1  0.4903958E-004  0.1000000E+04  0.7546771E-02  0.8684367E-01
         11   -1    0    0    0    0  0.00000000000E+00  0.00000000000E+00  0.50000000000E+03  0.50000000000E+03  0.00000000000E+00 0. -1.
        -11   -1    0    0    0    0 -0.00000000000E+00 -0.00000000000E+00 -0.50000000000E+03  0.50000000000E+03  0.00000000000E+00 0.  1.
          5    1    1    2  501    0  0.28950231515E+03  0.26612415677E+03  0.30877864677E+03  0.50000000000E+03  0.47000000000E+01 0. -1.
         -5    1    1    2    0  501 -0.28950231515E+03 -0.26612415677E+03 -0.30877864677E+03  0.50000000000E+03  0.47000000000E+01 0.  1.
</event>
<event>
 4    1  0.4903958E-004  0.1000000E+04  0.7546771E-02  0.8684367E-01
         11   -1    0    0    0    0  0.00000000000E+00  0.00000000000E+00  0.50000000000E+03  0.50000000000E+03  0.00000000000E+00 0. -1.
        -11   -1    0    0    0    0 -0.00000000000E+00 -0.00000000000E+00 -0.50000000000E+03  0.50000000000E+03  0.00000000000E+00 0.  1.
          5    1    1    2  501    0  0.30955687591E+03  0.52031280325E+02  0.38915960279E+03  0.50000000000E+03  0.47000000000E+01 0. -1.
         -5    1    1    2    0  501 -0.30955687591E+03 -0.52031280325E+02 -0.38915960279E+03  0.50000000000E+03  0.47000000000E+01 0.  1.
</event>
<event>
 4    1  0.4903958E-004  0.1000000E+04  0.7546771E-02  0.8684367E-01
         11   -1    0    0    0    0  0.00000000000E+00  0.00000000000E+00  0.50000000000E+03  0.50000000000E+03  0.00000000000E+00 0. -1.
        -11   -1    0    0    0    0 -0.00000000000E+00 -0.00000000000E+00 -0.50000000000E+03  0.50000000000E+03  0.00000000000E+00 0.  1.
          5    1    1    2  501    0  0.26385817855E+03  0.35154022994E+03  0.23827764971E+03  0.50000000000E+03  0.47000000000E+01 0. -1.
         -5    1    1    2    0  501 -0.26385817855E+03 -0.35154022994E+03 -0.23827764971E+03  0.50000000000E+03  0.47000000000E+01 0.  1.
</event>
<event>
 4    1  0.4903958E-004  0.1000000E+04  0.7546771E-02  0.8684367E-01
         11   -1    0    0    0    0  0.00000000000E+00  0.00000000000E+00  0.50000000000E+03  0.50000000000E+03  0.00000000000E+00 0.  1.
        -11   -1    0    0    0    0 -0.00000000000E+00 -0.00000000000E+00 -0.50000000000E+03  0.50000000000E+03  0.00000000000E+00 0. -1.
          5    1    1    2  501    0 -0.12966044456E+03  0.17576714436E+03  0.44974658429E+03  0.50000000000E+03  0.47000000000E+01 0.  1.
         -5    1    1    2    0  501  0.12966044456E+03 -0.17576714436E+03 -0.44974658429E+03  0.50000000000E+03  0.47000000000E+01 0. -1.
</event>
<event>
 4    1  0.4903958E-004  0.1000000E+04  0.7546771E-02  0.8684367E-01
         11   -1    0    0    0    0  0.00000000000E+00  0.00000000000E+00  0.50000000000E+03  0.50000000000E+03  0.00000000000E+00 0. -1.
        -11   -1    0    0    0    0 -0.00000000000E+00 -0.00000000000E+00 -0.50000000000E+03  0.50000000000E+03  0.00000000000E+00 0.  1.
          5    1    1    2  501    0  0.89846137372E+02 -0.38429561210E+03  0.30695677891E+03  0.50000000000E+03  0.47000000000E+01 0. -1.
         -5    1    1    2    0  501 -0.89846137372E+02  0.38429561210E+03 -0.30695677891E+03  0.50000000000E+03  0.47000000000E+01 0.  1.
</event>
<event>
 4    1  0.4903958E-004  0.1000000E+04  0.7546771E-02  0.8684367E-01
         11   -1    0    0    0    0  0.00000000000E+00  0.00000000000E+00  0.50000000000E+03  0.50000000000E+03  0.00000000000E+00 0. -1.
        -11   -1    0    0    0    0 -0.00000000000E+00 -0.00000000000E+00 -0.50000000000E+03  0.50000000000E+03  0.00000000000E+00 0.  1.
          5    1    1    2  501    0  0.46735336271E+03 -0.16502167893E+03 -0.65776818475E+02  0.50000000000E+03  0.47000000000E+01 0. -1.
         -5    1    1    2    0  501 -0.46735336271E+03  0.16502167893E+03  0.65776818475E+02  0.50000000000E+03  0.47000000000E+01 0.  1.
</event>
<event>
 4    1  0.4903958E-004  0.1000000E+04  0.7546771E-02  0.8684367E-01
         11   -1    0    0    0    0  0.00000000000E+00  0.00000000000E+00  0.50000000000E+03  0.50000000000E+03  0.00000000000E+00 0. -1.
        -11   -1    0    0    0    0 -0.00000000000E+00 -0.00000000000E+00 -0.50000000000E+03  0.50000000000E+03  0.00000000000E+00 0.  1.
          5    1    1    2  501    0 -0.49596197602E+03 -0.32367003575E+02 -0.54332360765E+02  0.50000000000E+03  0.47000000000E+01 0. -1.
         -5    1    1    2    0  501  0.49596197602E+03  0.32367003575E+02  0.54332360765E+02  0.50000000000E+03  0.47000000000E+01 0.  1.
</event>
<event>
 4    1  0.4903958E-004  0.1000000E+04  0.7546771E-02  0.8684367E-01
         11   -1    0    0    0    0  0.00000000000E+00  0.00000000000E+00  0.50000000000E+03  0.50000000000E+03  0.00000000000E+00 0. -1.
        -11   -1    0    0    0    0 -0.00000000000E+00 -0.00000000000E+00 -0.50000000000E+03  0.50000000000E+03  0.00000000000E+00 0.  1.
          5    1    1    2  501    0 -0.86265264519E+02 -0.37289212744E+03  0.32169500374E+03  0.50000000000E+03  0.47000000000E+01 0. -1.
         -5    1    1    2    0  501  0.86265264519E+02  0.37289212744E+03 -0.32169500374E+03  0.50000000000E+03  0.47000000000E+01 0.  1.
</event>
<event>
 4    1  0.4903958E-004  0.1000000E+04  0.7546771E-02  0.8684367E-01
         11   -1    0    0    0    0  0.00000000000E+00  0.00000000000E+00  0.50000000000E+03  0.50000000000E+03  0.00000000000E+00 0.  1.
        -11   -1    0    0    0    0 -0.00000000000E+00 -0.00000000000E+00 -0.50000000000E+03  0.50000000000E+03  0.00000000000E+00 0. -1.
          5    1    1    2  501    0  0.20796726646E+03 -0.44318276865E+03  0.10157046645E+03  0.50000000000E+03  0.47000000000E+01 0.  1.
         -5    1    1    2    0  501 -0.20796726646E+03  0.44318276865E+03 -0.10157046645E+03  0.50000000000E+03  0.47000000000E+01 0. -1.
</event>
<event>
 4    1  0.4903958E-004  0.1000000E+04  0.7546771E-02  0.8684367E-01
         11   -1    0    0    0    0  0.00000000000E+00  0.00000000000E+00  0.50000000000E+03  0.50000000000E+03  0.00000000000E+00 0. -1.
        -11   -1    0    0    0    0 -0.00000000000E+00 -0.00000000000E+00 -0.50000000000E+03  0.50000000000E+03  0.00000000000E+00 0.  1.
          5    1    1    2  501    0  0.41365500272E+03 -0.10712297618E+03  0.25959991659E+03  0.50000000000E+03  0.47000000000E+01 0. -1.
         -5    1    1    2    0  501 -0.41365500272E+03  0.10712297618E+03 -0.25959991659E+03  0.50000000000E+03  0.47000000000E+01 0.  1.
</event>
<event>
 4    1  0.4903958E-004  0.1000000E+04  0.7546771E-02  0.8684367E-01
         11   -1    0    0    0    0  0.00000000000E+00  0.00000000000E+00  0.50000000000E+03  0.50000000000E+03  0.00000000000E+00 0.  1.
        -11   -1    0    0    0    0 -0.00000000000E+00 -0.00000000000E+00 -0.50000000000E+03  0.50000000000E+03  0.00000000000E+00 0. -1.
          5    1    1    2  501    0  0.41011382597E+02 -0.40160719371E+02  0.49667201765E+03  0.50000000000E+03  0.47000000000E+01 0.  1.
         -5    1    1    2    0  501 -0.41011382597E+02  0.40160719371E+02 -0.49667201765E+03  0.50000000000E+03  0.47000000000E+01 0. -1.
</event>
<event>
 4    1  0.4903958E-004  0.1000000E+04  0.7546771E-02  0.8684367E-01
         11   -1    0    0    0    0  0.00000000000E+00  0.00000000000E+00  0.50000000000E+03  0.50000000000E+03  0.00000000000E+00 0. -1.
        -11   -1    0    0    0    0 -0.00000000000E+00 -0.00000000000E+00 -0.50000000000E+03  0.50000000000E+03  0.00000000000E+00 0.  1.
          5    1    1    2  501    0  0.36397312698E+03  0.21594445688E+03  0.26621319347E+03  0.50000000000E+03  0.47000000000E+01 0. -1.
         -5    1    1    2    0  501 -0.36397312698E+03 -0.21594445688E+03 -0.26621319347E+03  0.50000000000E+03  0.47000000000E+01 0.  1.
</event>
<event>
 4    1  0.4903958E-004  0.1000000E+04  0.7546771E-02  0.8684367E-01
         11   -1    0    0    0    0  0.00000000000E+00  0.00000000000E+00  0.50000000000E+03  0.50000000000E+03  0.00000000000E+00 0. -1.
        -11   -1    0    0    0    0 -0.00000000000E+00 -0.00000000000E+00 -0.50000000000E+03  0.50000000000E+03  0.00000000000E+00 0.  1.
          5    1    1    2  501    0  0.48754896027E+03 -0.10184617046E+03  0.43603657027E+02  0.50000000000E+03  0.47000000000E+01 0. -1.
         -5    1    1    2    0  501 -0.48754896027E+03  0.10184617046E+03 -0.43603657027E+02  0.50000000000E+03  0.47000000000E+01 0.  1.
</event>
<event>
 4    1  0.4903958E-004  0.1000000E+04  0.7546771E-02  0.8684367E-01
         11   -1    0    0    0    0  0.00000000000E+00  0.00000000000E+00  0.50000000000E+03  0.50000000000E+03  0.00000000000E+00 0. -1.
        -11   -1    0    0    0    0 -0.00000000000E+00 -0.00000000000E+00 -0.50000000000E+03  0.50000000000E+03  0.00000000000E+00 0.  1.
          5    1    1    2  501    0 -0.22053200183E+03  0.23587520132E+03  0.38171512358E+03  0.50000000000E+03  0.47000000000E+01 0. -1.
         -5    1    1    2    0  501  0.22053200183E+03 -0.23587520132E+03 -0.38171512358E+03  0.50000000000E+03  0.47000000000E+01 0.  1.
</event>
<event>
 4    1  0.4903958E-004  0.1000000E+04  0.7546771E-02  0.8684367E-01
         11   -1    0    0    0    0  0.00000000000E+00  0.00000000000E+00  0.50000000000E+03  0.50000000000E+03  0.00000000000E+00 0. -1.
        -11   -1    0    0    0    0 -0.00000000000E+00 -0.00000000000E+00 -0.50000000000E+03  0.50000000000E+03  0.00000000000E+00 0.  1.
          5    1    1    2  501    0 -0.51310969885E+02  0.37283392495E+03  0.32915035892E+03  0.50000000000E+03  0.47000000000E+01 0. -1.
         -5    1    1    2    0  501  0.51310969885E+02 -0.37283392495E+03 -0.32915035892E+03  0.50000000000E+03  0.47000000000E+01 0.  1.
</event>
<event>
 4    1  0.4903958E-004  0.1000000E+04  0.7546771E-02  0.8684367E-01
         11   -1    0    0    0    0  0.00000000000E+00  0.00000000000E+00  0.50000000000E+03  0.50000000000E+03  0.00000000000E+00 0. -1.
        -11   -1    0    0    0    0 -0.00000000000E+00 -0.00000000000E+00 -0.50000000000E+03  0.50000000000E+03  0.00000000000E+00 0.  1.
          5    1    1    2  501    0  0.71825747602E+02  0.47668960714E+03 -0.13261218052E+03  0.50000000000E+03  0.47000000000E+01 0. -1.
         -5    1    1    2    0  501 -0.71825747602E+02 -0.47668960714E+03  0.13261218052E+03  0.50000000000E+03  0.47000000000E+01 0.  1.
</event>
<event>
 4    1  0.4903958E-004  0.1000000E+04  0.7546771E-02  0.8684367E-01
         11   -1    0    0    0    0  0.00000000000E+00  0.00000000000E+00  0.50000000000E+03  0.50000000000E+03  0.00000000000E+00 0. -1.
        -11   -1    0    0    0    0 -0.00000000000E+00 -0.00000000000E+00 -0.50000000000E+03  0.50000000000E+03  0.00000000000E+00 0.  1.
          5    1    1    2  501    0  0.37610197528E+03  0.29991630986E+03  0.13629167719E+03  0.50000000000E+03  0.47000000000E+01 0. -1.
         -5    1    1    2    0  501 -0.37610197528E+03 -0.29991630986E+03 -0.13629167719E+03  0.50000000000E+03  0.47000000000E+01 0.  1.
</event>
<event>
 4    1  0.4903958E-004  0.1000000E+04  0.7546771E-02  0.8684367E-01
         11   -1    0    0    0    0  0.00000000000E+00  0.00000000000E+00  0.50000000000E+03  0.50000000000E+03  0.00000000000E+00 0.  1.
        -11   -1    0    0    0    0 -0.00000000000E+00 -0.00000000000E+00 -0.50000000000E+03  0.50000000000E+03  0.00000000000E+00 0. -1.
          5    1    1    2  501    0  0.94194751800E+02 -0.39320408028E+02  0.48944781565E+03  0.50000000000E+03  0.47000000000E+01 0.  1.
         -5    1    1    2    0  501 -0.94194751800E+02  0.39320408028E+02 -0.48944781565E+03  0.50000000000E+03  0.47000000000E+01 0. -1.
</event>
<event>
 4    1  0.4903958E-004  0.1000000E+04  0.7546771E-02  0.8684367E-01
         11   -1    0    0    0    0  0.00000000000E+00  0.00000000000E+00  0.50000000000E+03  0.50000000000E+03  0.00000000000E+00 0. -1.
        -11   -1    0    0    0    0 -0.00000000000E+00 -0.00000000000E+00 -0.50000000000E+03  0.50000000000E+03  0.00000000000E+00 0.  1.
          5    1    1    2  501    0  0.48326334543E+03  0.10795546837E+03  0.69138020032E+02  0.50000000000E+03  0.47000000000E+01 0. -1.
         -5    1    1    2    0  501 -0.48326334543E+03 -0.10795546837E+03 -0.69138020032E+02  0.50000000000E+03  0.47000000000E+01 0.  1.
</event>
<event>
 4    1  0.4903958E-004  0.1000000E+04  0.7546771E-02  0.8684367E-01
         11   -1    0    0    0    0  0.00000000000E+00  0.00000000000E+00  0.50000000000E+03  0.50000000000E+03  0.00000000000E+00 0. -1.
        -11   -1    0    0    0    0 -0.00000000000E+00 -0.00000000000E+00 -0.50000000000E+03  0.50000000000E+03  0.00000000000E+00 0.  1.
          5    1    1    2  501    0 -0.24454506390E+03  0.32553817563E+03  0.29017325502E+03  0.50000000000E+03  0.47000000000E+01 0. -1.
         -5    1    1    2    0  501  0.24454506390E+03 -0.32553817563E+03 -0.29017325502E+03  0.50000000000E+03  0.47000000000E+01 0.  1.
</event>
<event>
 4    1  0.4903958E-004  0.1000000E+04  0.7546771E-02  0.8684367E-01
         11   -1    0    0    0    0  0.00000000000E+00  0.00000000000E+00  0.50000000000E+03  0.50000000000E+03  0.00000000000E+00 0. -1.
        -11   -1    0    0    0    0 -0.00000000000E+00 -0.00000000000E+00 -0.50000000000E+03  0.50000000000E+03  0.00000000000E+00 0.  1.
          5    1    1    2  501    0 -0.47884089688E+03  0.89571074312E+02  0.11254478272E+03  0.50000000000E+03  0.47000000000E+01 0. -1.
         -5    1    1    2    0  501  0.47884089688E+03 -0.89571074312E+02 -0.11254478272E+03  0.50000000000E+03  0.47000000000E+01 0.  1.
</event>
<event>
 4    1  0.4903958E-004  0.1000000E+04  0.7546771E-02  0.8684367E-01
         11   -1    0    0    0    0  0.00000000000E+00  0.00000000000E+00  0.50000000000E+03  0.50000000000E+03  0.00000000000E+00 0. -1.
        -11   -1    0    0    0    0 -0.00000000000E+00 -0.00000000000E+00 -0.50000000000E+03  0.50000000000E+03  0.00000000000E+00 0.  1.
          5    1    1    2  501    0 -0.11148473171E+02 -0.24271361843E+03  0.43697107567E+03  0.50000000000E+03  0.47000000000E+01 0. -1.
         -5    1    1    2    0  501  0.11148473171E+02  0.24271361843E+03 -0.43697107567E+03  0.50000000000E+03  0.47000000000E+01 0.  1.
</event>
<event>
 4    1  0.4903958E-004  0.1000000E+04  0.7546771E-02  0.8684367E-01
         11   -1    0    0    0    0  0.00000000000E+00  0.00000000000E+00  0.50000000000E+03  0.50000000000E+03  0.00000000000E+00 0. -1.
        -11   -1    0    0    0    0 -0.00000000000E+00 -0.00000000000E+00 -0.50000000000E+03  0.50000000000E+03  0.00000000000E+00 0.  1.
          5    1    1    2  501    0  0.38606452098E+02 -0.32595768555E+03  0.37714591220E+03  0.50000000000E+03  0.47000000000E+01 0. -1.
         -5    1    1    2    0  501 -0.38606452098E+02  0.32595768555E+03 -0.37714591220E+03  0.50000000000E+03  0.47000000000E+01 0.  1.
</event>
<event>
 4    1  0.4903958E-004  0.1000000E+04  0.7546771E-02  0.8684367E-01
         11   -1    0    0    0    0  0.00000000000E+00  0.00000000000E+00  0.50000000000E+03  0.50000000000E+03  0.00000000000E+00 0.  1.
        -11   -1    0    0    0    0 -0.00000000000E+00 -0.00000000000E+00 -0.50000000000E+03  0.50000000000E+03  0.00000000000E+00 0. -1.
          5    1    1    2  501    0  0.99670678077E+02  0.13478535137E+03  0.47103776387E+03  0.50000000000E+03  0.47000000000E+01 0.  1.
         -5    1    1    2    0  501 -0.99670678077E+02 -0.13478535137E+03 -0.47103776387E+03  0.50000000000E+03  0.47000000000E+01 0. -1.
</event>
<event>
 4    1  0.4903958E-004  0.1000000E+04  0.7546771E-02  0.8684367E-01
         11   -1    0    0    0    0  0.00000000000E+00  0.00000000000E+00  0.50000000000E+03  0.50000000000E+03  0.00000000000E+00 0. -1.
        -11   -1    0    0    0    0 -0.00000000000E+00 -0.00000000000E+00 -0.50000000000E+03  0.50000000000E+03  0.00000000000E+00 0.  1.
          5    1    1    2  501    0 -0.35615665147E+03  0.26644575670E+03 -0.22833529808E+03  0.50000000000E+03  0.47000000000E+01 0. -1.
         -5    1    1    2    0  501  0.35615665147E+03 -0.26644575670E+03  0.22833529808E+03  0.50000000000E+03  0.47000000000E+01 0.  1.
</event>
<event>
 4    1  0.4903958E-004  0.1000000E+04  0.7546771E-02  0.8684367E-01
         11   -1    0    0    0    0  0.00000000000E+00  0.00000000000E+00  0.50000000000E+03  0.50000000000E+03  0.00000000000E+00 0.  1.
        -11   -1    0    0    0    0 -0.00000000000E+00 -0.00000000000E+00 -0.50000000000E+03  0.50000000000E+03  0.00000000000E+00 0. -1.
          5    1    1    2  501    0  0.36511723289E+03  0.25468043260E+03  0.22760754272E+03  0.50000000000E+03  0.47000000000E+01 0.  1.
         -5    1    1    2    0  501 -0.36511723289E+03 -0.25468043260E+03 -0.22760754272E+03  0.50000000000E+03  0.47000000000E+01 0. -1.
</event>
<event>
 4    1  0.4903958E-004  0.1000000E+04  0.7546771E-02  0.8684367E-01
         11   -1    0    0    0    0  0.00000000000E+00  0.00000000000E+00  0.50000000000E+03  0.50000000000E+03  0.00000000000E+00 0. -1.
        -11   -1    0    0    0    0 -0.00000000000E+00 -0.00000000000E+00 -0.50000000000E+03  0.50000000000E+03  0.00000000000E+00 0.  1.
          5    1    1    2  501    0  0.56060143642E+02 -0.30904126810E+03 -0.38900985194E+03  0.50000000000E+03  0.47000000000E+01 0.  1.
         -5    1    1    2    0  501 -0.56060143642E+02  0.30904126810E+03  0.38900985194E+03  0.50000000000E+03  0.47000000000E+01 0. -1.
</event>
<event>
 4    1  0.4903958E-004  0.1000000E+04  0.7546771E-02  0.8684367E-01
         11   -1    0    0    0    0  0.00000000000E+00  0.00000000000E+00  0.50000000000E+03  0.50000000000E+03  0.00000000000E+00 0. -1.
        -11   -1    0    0    0    0 -0.00000000000E+00 -0.00000000000E+00 -0.50000000000E+03  0.50000000000E+03  0.00000000000E+00 0.  1.
          5    1    1    2  501    0 -0.81728627739E+02  0.40035904364E+03  0.28811625707E+03  0.50000000000E+03  0.47000000000E+01 0. -1.
         -5    1    1    2    0  501  0.81728627739E+02 -0.40035904364E+03 -0.28811625707E+03  0.50000000000E+03  0.47000000000E+01 0.  1.
</event>
<event>
 4    1  0.4903958E-004  0.1000000E+04  0.7546771E-02  0.8684367E-01
         11   -1    0    0    0    0  0.00000000000E+00  0.00000000000E+00  0.50000000000E+03  0.50000000000E+03  0.00000000000E+00 0.  1.
        -11   -1    0    0    0    0 -0.00000000000E+00 -0.00000000000E+00 -0.50000000000E+03  0.50000000000E+03  0.00000000000E+00 0. -1.
          5    1    1    2  501    0 -0.12449746129E+03 -0.48310093653E+03  0.33042052785E+02  0.50000000000E+03  0.47000000000E+01 0.  1.
         -5    1    1    2    0  501  0.12449746129E+03  0.48310093653E+03 -0.33042052785E+02  0.50000000000E+03  0.47000000000E+01 0. -1.
</event>
<event>
 4    1  0.4903958E-004  0.1000000E+04  0.7546771E-02  0.8684367E-01
         11   -1    0    0    0    0  0.00000000000E+00  0.00000000000E+00  0.50000000000E+03  0.50000000000E+03  0.00000000000E+00 0. -1.
        -11   -1    0    0    0    0 -0.00000000000E+00 -0.00000000000E+00 -0.50000000000E+03  0.50000000000E+03  0.00000000000E+00 0.  1.
          5    1    1    2  501    0  0.57884724555E+01 -0.34199739952E+03 -0.36466722132E+03  0.50000000000E+03  0.47000000000E+01 0.  1.
         -5    1    1    2    0  501 -0.57884724555E+01  0.34199739952E+03  0.36466722132E+03  0.50000000000E+03  0.47000000000E+01 0. -1.
</event>
<event>
 4    1  0.4903958E-004  0.1000000E+04  0.7546771E-02  0.8684367E-01
         11   -1    0    0    0    0  0.00000000000E+00  0.00000000000E+00  0.50000000000E+03  0.50000000000E+03  0.00000000000E+00 0. -1.
        -11   -1    0    0    0    0 -0.00000000000E+00 -0.00000000000E+00 -0.50000000000E+03  0.50000000000E+03  0.00000000000E+00 0.  1.
          5    1    1    2  501    0 -0.32940851991E+03 -0.34298857154E+03  0.15435924592E+03  0.50000000000E+03  0.47000000000E+01 0. -1.
         -5    1    1    2    0  501  0.32940851991E+03  0.34298857154E+03 -0.15435924592E+03  0.50000000000E+03  0.47000000000E+01 0.  1.
</event>
<event>
 4    1  0.4903958E-004  0.1000000E+04  0.7546771E-02  0.8684367E-01
         11   -1    0    0    0    0  0.00000000000E+00  0.00000000000E+00  0.50000000000E+03  0.50000000000E+03  0.00000000000E+00 0. -1.
        -11   -1    0    0    0    0 -0.00000000000E+00 -0.00000000000E+00 -0.50000000000E+03  0.50000000000E+03  0.00000000000E+00 0.  1.
          5    1    1    2  501    0  0.20345609307E+03  0.22010724668E+03  0.40017037391E+03  0.50000000000E+03  0.47000000000E+01 0. -1.
         -5    1    1    2    0  501 -0.20345609307E+03 -0.22010724668E+03 -0.40017037391E+03  0.50000000000E+03  0.47000000000E+01 0.  1.
</event>
<event>
 4    1  0.4903958E-004  0.1000000E+04  0.7546771E-02  0.8684367E-01
         11   -1    0    0    0    0  0.00000000000E+00  0.00000000000E+00  0.50000000000E+03  0.50000000000E+03  0.00000000000E+00 0. -1.
        -11   -1    0    0    0    0 -0.00000000000E+00 -0.00000000000E+00 -0.50000000000E+03  0.50000000000E+03  0.00000000000E+00 0.  1.
          5    1    1    2  501    0 -0.16163749729E+02  0.26796410625E+03  0.42179601818E+03  0.50000000000E+03  0.47000000000E+01 0. -1.
         -5    1    1    2    0  501  0.16163749729E+02 -0.26796410625E+03 -0.42179601818E+03  0.50000000000E+03  0.47000000000E+01 0.  1.
</event>
<event>
 4    1  0.4903958E-004  0.1000000E+04  0.7546771E-02  0.8684367E-01
         11   -1    0    0    0    0  0.00000000000E+00  0.00000000000E+00  0.50000000000E+03  0.50000000000E+03  0.00000000000E+00 0. -1.
        -11   -1    0    0    0    0 -0.00000000000E+00 -0.00000000000E+00 -0.50000000000E+03  0.50000000000E+03  0.00000000000E+00 0.  1.
          5    1    1    2  501    0  0.46143601335E+02 -0.36922767758E+03  0.33394550478E+03  0.50000000000E+03  0.47000000000E+01 0. -1.
         -5    1    1    2    0  501 -0.46143601335E+02  0.36922767758E+03 -0.33394550478E+03  0.50000000000E+03  0.47000000000E+01 0.  1.
</event>
<event>
 4    1  0.4903958E-004  0.1000000E+04  0.7546771E-02  0.8684367E-01
         11   -1    0    0    0    0  0.00000000000E+00  0.00000000000E+00  0.50000000000E+03  0.50000000000E+03  0.00000000000E+00 0. -1.
        -11   -1    0    0    0    0 -0.00000000000E+00 -0.00000000000E+00 -0.50000000000E+03  0.50000000000E+03  0.00000000000E+00 0.  1.
          5    1    1    2  501    0 -0.41508880602E+03 -0.11248388091E+03  0.25500307774E+03  0.50000000000E+03  0.47000000000E+01 0. -1.
         -5    1    1    2    0  501  0.41508880602E+03  0.11248388091E+03 -0.25500307774E+03  0.50000000000E+03  0.47000000000E+01 0.  1.
</event>
<event>
 4    1  0.4903958E-004  0.1000000E+04  0.7546771E-02  0.8684367E-01
         11   -1    0    0    0    0  0.00000000000E+00  0.00000000000E+00  0.50000000000E+03  0.50000000000E+03  0.00000000000E+00 0.  1.
        -11   -1    0    0    0    0 -0.00000000000E+00 -0.00000000000E+00 -0.50000000000E+03  0.50000000000E+03  0.00000000000E+00 0. -1.
          5    1    1    2  501    0  0.53861133245E+02  0.38760894445E+03  0.31118514506E+03  0.50000000000E+03  0.47000000000E+01 0.  1.
         -5    1    1    2    0  501 -0.53861133245E+02 -0.38760894445E+03 -0.31118514506E+03  0.50000000000E+03  0.47000000000E+01 0. -1.
</event>
<event>
 4    1  0.4903958E-004  0.1000000E+04  0.7546771E-02  0.8684367E-01
         11   -1    0    0    0    0  0.00000000000E+00  0.00000000000E+00  0.50000000000E+03  0.50000000000E+03  0.00000000000E+00 0. -1.
        -11   -1    0    0    0    0 -0.00000000000E+00 -0.00000000000E+00 -0.50000000000E+03  0.50000000000E+03  0.00000000000E+00 0.  1.
          5    1    1    2  501    0  0.38491872818E+02  0.37633869024E+03  0.32690285400E+03  0.50000000000E+03  0.47000000000E+01 0. -1.
         -5    1    1    2    0  501 -0.38491872818E+02 -0.37633869024E+03 -0.32690285400E+03  0.50000000000E+03  0.47000000000E+01 0.  1.
</event>
<event>
 4    1  0.4903958E-004  0.1000000E+04  0.7546771E-02  0.8684367E-01
         11   -1    0    0    0    0  0.00000000000E+00  0.00000000000E+00  0.50000000000E+03  0.50000000000E+03  0.00000000000E+00 0. -1.
        -11   -1    0    0    0    0 -0.00000000000E+00 -0.00000000000E+00 -0.50000000000E+03  0.50000000000E+03  0.00000000000E+00 0.  1.
          5    1    1    2  501    0  0.76764738825E+02  0.41393135435E+03  0.26971451344E+03  0.50000000000E+03  0.47000000000E+01 0. -1.
         -5    1    1    2    0  501 -0.76764738825E+02 -0.41393135435E+03 -0.26971451344E+03  0.50000000000E+03  0.47000000000E+01 0.  1.
</event>
<event>
 4    1  0.4903958E-004  0.1000000E+04  0.7546771E-02  0.8684367E-01
         11   -1    0    0    0    0  0.00000000000E+00  0.00000000000E+00  0.50000000000E+03  0.50000000000E+03  0.00000000000E+00 0. -1.
        -11   -1    0    0    0    0 -0.00000000000E+00 -0.00000000000E+00 -0.50000000000E+03  0.50000000000E+03  0.00000000000E+00 0.  1.
          5    1    1    2  501    0  0.40274100386E+03 -0.25810247586E+03 -0.14546719826E+03  0.50000000000E+03  0.47000000000E+01 0. -1.
         -5    1    1    2    0  501 -0.40274100386E+03  0.25810247586E+03  0.14546719826E+03  0.50000000000E+03  0.47000000000E+01 0.  1.
</event>
<event>
 4    1  0.4903958E-004  0.1000000E+04  0.7546771E-02  0.8684367E-01
         11   -1    0    0    0    0  0.00000000000E+00  0.00000000000E+00  0.50000000000E+03  0.50000000000E+03  0.00000000000E+00 0. -1.
        -11   -1    0    0    0    0 -0.00000000000E+00 -0.00000000000E+00 -0.50000000000E+03  0.50000000000E+03  0.00000000000E+00 0.  1.
          5    1    1    2  501    0  0.37109339597E+03  0.29733107963E+02 -0.33374173212E+03  0.50000000000E+03  0.47000000000E+01 0. -1.
         -5    1    1    2    0  501 -0.37109339597E+03 -0.29733107963E+02  0.33374173212E+03  0.50000000000E+03  0.47000000000E+01 0.  1.
</event>
<event>
 4    1  0.4903958E-004  0.1000000E+04  0.7546771E-02  0.8684367E-01
         11   -1    0    0    0    0  0.00000000000E+00  0.00000000000E+00  0.50000000000E+03  0.50000000000E+03  0.00000000000E+00 0.  1.
        -11   -1    0    0    0    0 -0.00000000000E+00 -0.00000000000E+00 -0.50000000000E+03  0.50000000000E+03  0.00000000000E+00 0. -1.
          5    1    1    2  501    0  0.36180546420E+03 -0.42572216726E+02  0.34243586616E+03  0.50000000000E+03  0.47000000000E+01 0.  1.
         -5    1    1    2    0  501 -0.36180546420E+03  0.42572216726E+02 -0.34243586616E+03  0.50000000000E+03  0.47000000000E+01 0. -1.
</event>
<event>
 4    1  0.4903958E-004  0.1000000E+04  0.7546771E-02  0.8684367E-01
         11   -1    0    0    0    0  0.00000000000E+00  0.00000000000E+00  0.50000000000E+03  0.50000000000E+03  0.00000000000E+00 0. -1.
        -11   -1    0    0    0    0 -0.00000000000E+00 -0.00000000000E+00 -0.50000000000E+03  0.50000000000E+03  0.00000000000E+00 0.  1.
          5    1    1    2  501    0  0.41968641419E+03 -0.15542826469E+03  0.22289746135E+03  0.50000000000E+03  0.47000000000E+01 0. -1.
         -5    1    1    2    0  501 -0.41968641419E+03  0.15542826469E+03 -0.22289746135E+03  0.50000000000E+03  0.47000000000E+01 0.  1.
</event>
<event>
 4    1  0.4903958E-004  0.1000000E+04  0.7546771E-02  0.8684367E-01
         11   -1    0    0    0    0  0.00000000000E+00  0.00000000000E+00  0.50000000000E+03  0.50000000000E+03  0.00000000000E+00 0. -1.
        -11   -1    0    0    0    0 -0.00000000000E+00 -0.00000000000E+00 -0.50000000000E+03  0.50000000000E+03  0.00000000000E+00 0.  1.
          5    1    1    2  501    0  0.46112913542E+03 -0.14531164082E+03  0.12736701894E+03  0.50000000000E+03  0.47000000000E+01 0. -1.
         -5    1    1    2    0  501 -0.46112913542E+03  0.14531164082E+03 -0.12736701894E+03  0.50000000000E+03  0.47000000000E+01 0.  1.
</event>
<event>
 4    1  0.4903958E-004  0.1000000E+04  0.7546771E-02  0.8684367E-01
         11   -1    0    0    0    0  0.00000000000E+00  0.00000000000E+00  0.50000000000E+03  0.50000000000E+03  0.00000000000E+00 0. -1.
        -11   -1    0    0    0    0 -0.00000000000E+00 -0.00000000000E+00 -0.50000000000E+03  0.50000000000E+03  0.00000000000E+00 0.  1.
          5    1    1    2  501    0  0.39818510314E+03 -0.22847619621E+03  0.19805343067E+03  0.50000000000E+03  0.47000000000E+01 0. -1.
         -5    1    1    2    0  501 -0.39818510314E+03  0.22847619621E+03 -0.19805343067E+03  0.50000000000E+03  0.47000000000E+01 0.  1.
</event>
<event>
 4    1  0.4903958E-004  0.1000000E+04  0.7546771E-02  0.8684367E-01
         11   -1    0    0    0    0  0.00000000000E+00  0.00000000000E+00  0.50000000000E+03  0.50000000000E+03  0.00000000000E+00 0. -1.
        -11   -1    0    0    0    0 -0.00000000000E+00 -0.00000000000E+00 -0.50000000000E+03  0.50000000000E+03  0.00000000000E+00 0.  1.
          5    1    1    2  501    0 -0.62633292604E+02 -0.31408534367E+03  0.38393407970E+03  0.50000000000E+03  0.47000000000E+01 0. -1.
         -5    1    1    2    0  501  0.62633292604E+02  0.31408534367E+03 -0.38393407970E+03  0.50000000000E+03  0.47000000000E+01 0.  1.
</event>
<event>
 4    1  0.4903958E-004  0.1000000E+04  0.7546771E-02  0.8684367E-01
         11   -1    0    0    0    0  0.00000000000E+00  0.00000000000E+00  0.50000000000E+03  0.50000000000E+03  0.00000000000E+00 0. -1.
        -11   -1    0    0    0    0 -0.00000000000E+00 -0.00000000000E+00 -0.50000000000E+03  0.50000000000E+03  0.00000000000E+00 0.  1.
          5    1    1    2  501    0  0.11841621175E+03 -0.34262151846E+02  0.48454268723E+03  0.50000000000E+03  0.47000000000E+01 0. -1.
         -5    1    1    2    0  501 -0.11841621175E+03  0.34262151846E+02 -0.48454268723E+03  0.50000000000E+03  0.47000000000E+01 0.  1.
</event>
<event>
 4    1  0.4903958E-004  0.1000000E+04  0.7546771E-02  0.8684367E-01
         11   -1    0    0    0    0  0.00000000000E+00  0.00000000000E+00  0.50000000000E+03  0.50000000000E+03  0.00000000000E+00 0. -1.
        -11   -1    0    0    0    0 -0.00000000000E+00 -0.00000000000E+00 -0.50000000000E+03  0.50000000000E+03  0.00000000000E+00 0.  1.
          5    1    1    2  501    0 -0.25632974156E+02  0.32955157608E+03  0.37512213923E+03  0.50000000000E+03  0.47000000000E+01 0. -1.
         -5    1    1    2    0  501  0.25632974156E+02 -0.32955157608E+03 -0.37512213923E+03  0.50000000000E+03  0.47000000000E+01 0.  1.
</event>
<event>
 4    1  0.4903958E-004  0.1000000E+04  0.7546771E-02  0.8684367E-01
         11   -1    0    0    0    0  0.00000000000E+00  0.00000000000E+00  0.50000000000E+03  0.50000000000E+03  0.00000000000E+00 0. -1.
        -11   -1    0    0    0    0 -0.00000000000E+00 -0.00000000000E+00 -0.50000000000E+03  0.50000000000E+03  0.00000000000E+00 0.  1.
          5    1    1    2  501    0 -0.41009852201E+03 -0.14798554767E+01  0.28599811585E+03  0.50000000000E+03  0.47000000000E+01 0. -1.
         -5    1    1    2    0  501  0.41009852201E+03  0.14798554767E+01 -0.28599811585E+03  0.50000000000E+03  0.47000000000E+01 0.  1.
</event>
<event>
 4    1  0.4903958E-004  0.1000000E+04  0.7546771E-02  0.8684367E-01
         11   -1    0    0    0    0  0.00000000000E+00  0.00000000000E+00  0.50000000000E+03  0.50000000000E+03  0.00000000000E+00 0. -1.
        -11   -1    0    0    0    0 -0.00000000000E+00 -0.00000000000E+00 -0.50000000000E+03  0.50000000000E+03  0.00000000000E+00 0.  1.
          5    1    1    2  501    0 -0.16345448874E+03 -0.38179826430E+03 -0.27837138051E+03  0.50000000000E+03  0.47000000000E+01 0. -1.
         -5    1    1    2    0  501  0.16345448874E+03  0.38179826430E+03  0.27837138051E+03  0.50000000000E+03  0.47000000000E+01 0.  1.
</event>
<event>
 4    1  0.4903958E-004  0.1000000E+04  0.7546771E-02  0.8684367E-01
         11   -1    0    0    0    0  0.00000000000E+00  0.00000000000E+00  0.50000000000E+03  0.50000000000E+03  0.00000000000E+00 0. -1.
        -11   -1    0    0    0    0 -0.00000000000E+00 -0.00000000000E+00 -0.50000000000E+03  0.50000000000E+03  0.00000000000E+00 0.  1.
          5    1    1    2  501    0  0.38501228390E+03 -0.47760336825E+02  0.31537660261E+03  0.50000000000E+03  0.47000000000E+01 0. -1.
         -5    1    1    2    0  501 -0.38501228390E+03  0.47760336825E+02 -0.31537660261E+03  0.50000000000E+03  0.47000000000E+01 0.  1.
</event>
<event>
 4    1  0.4903958E-004  0.1000000E+04  0.7546771E-02  0.8684367E-01
         11   -1    0    0    0    0  0.00000000000E+00  0.00000000000E+00  0.50000000000E+03  0.50000000000E+03  0.00000000000E+00 0. -1.
        -11   -1    0    0    0    0 -0.00000000000E+00 -0.00000000000E+00 -0.50000000000E+03  0.50000000000E+03  0.00000000000E+00 0.  1.
          5    1    1    2  501    0 -0.11788257956E+03  0.18305770852E+03  0.45007941831E+03  0.50000000000E+03  0.47000000000E+01 0. -1.
         -5    1    1    2    0  501  0.11788257956E+03 -0.18305770852E+03 -0.45007941831E+03  0.50000000000E+03  0.47000000000E+01 0.  1.
</event>
<event>
 4    1  0.4903958E-004  0.1000000E+04  0.7546771E-02  0.8684367E-01
         11   -1    0    0    0    0  0.00000000000E+00  0.00000000000E+00  0.50000000000E+03  0.50000000000E+03  0.00000000000E+00 0. -1.
        -11   -1    0    0    0    0 -0.00000000000E+00 -0.00000000000E+00 -0.50000000000E+03  0.50000000000E+03  0.00000000000E+00 0.  1.
          5    1    1    2  501    0 -0.23718908126E+03 -0.32611595903E+03  0.29558016002E+03  0.50000000000E+03  0.47000000000E+01 0. -1.
         -5    1    1    2    0  501  0.23718908126E+03  0.32611595903E+03 -0.29558016002E+03  0.50000000000E+03  0.47000000000E+01 0.  1.
</event>
<event>
 4    1  0.4903958E-004  0.1000000E+04  0.7546771E-02  0.8684367E-01
         11   -1    0    0    0    0  0.00000000000E+00  0.00000000000E+00  0.50000000000E+03  0.50000000000E+03  0.00000000000E+00 0. -1.
        -11   -1    0    0    0    0 -0.00000000000E+00 -0.00000000000E+00 -0.50000000000E+03  0.50000000000E+03  0.00000000000E+00 0.  1.
          5    1    1    2  501    0  0.31296379517E+03  0.30388389764E+03  0.24430748999E+03  0.50000000000E+03  0.47000000000E+01 0. -1.
         -5    1    1    2    0  501 -0.31296379517E+03 -0.30388389764E+03 -0.24430748999E+03  0.50000000000E+03  0.47000000000E+01 0.  1.
</event>
<event>
 4    1  0.4903958E-004  0.1000000E+04  0.7546771E-02  0.8684367E-01
         11   -1    0    0    0    0  0.00000000000E+00  0.00000000000E+00  0.50000000000E+03  0.50000000000E+03  0.00000000000E+00 0. -1.
        -11   -1    0    0    0    0 -0.00000000000E+00 -0.00000000000E+00 -0.50000000000E+03  0.50000000000E+03  0.00000000000E+00 0.  1.
          5    1    1    2  501    0 -0.22403117234E+03  0.44277673247E+03 -0.61128626689E+02  0.50000000000E+03  0.47000000000E+01 0. -1.
         -5    1    1    2    0  501  0.22403117234E+03 -0.44277673247E+03  0.61128626689E+02  0.50000000000E+03  0.47000000000E+01 0.  1.
</event>
<event>
 4    1  0.4903958E-004  0.1000000E+04  0.7546771E-02  0.8684367E-01
         11   -1    0    0    0    0  0.00000000000E+00  0.00000000000E+00  0.50000000000E+03  0.50000000000E+03  0.00000000000E+00 0. -1.
        -11   -1    0    0    0    0 -0.00000000000E+00 -0.00000000000E+00 -0.50000000000E+03  0.50000000000E+03  0.00000000000E+00 0.  1.
          5    1    1    2  501    0  0.14707168219E+03 -0.19692011886E+03  0.43539671230E+03  0.50000000000E+03  0.47000000000E+01 0. -1.
         -5    1    1    2    0  501 -0.14707168219E+03  0.19692011886E+03 -0.43539671230E+03  0.50000000000E+03  0.47000000000E+01 0.  1.
</event>
<event>
 4    1  0.4903958E-004  0.1000000E+04  0.7546771E-02  0.8684367E-01
         11   -1    0    0    0    0  0.00000000000E+00  0.00000000000E+00  0.50000000000E+03  0.50000000000E+03  0.00000000000E+00 0. -1.
        -11   -1    0    0    0    0 -0.00000000000E+00 -0.00000000000E+00 -0.50000000000E+03  0.50000000000E+03  0.00000000000E+00 0.  1.
          5    1    1    2  501    0  0.11712068596E+02  0.14444963981E+03  0.47851336346E+03  0.50000000000E+03  0.47000000000E+01 0. -1.
         -5    1    1    2    0  501 -0.11712068596E+02 -0.14444963981E+03 -0.47851336346E+03  0.50000000000E+03  0.47000000000E+01 0.  1.
</event>
<event>
 4    1  0.4903958E-004  0.1000000E+04  0.7546771E-02  0.8684367E-01
         11   -1    0    0    0    0  0.00000000000E+00  0.00000000000E+00  0.50000000000E+03  0.50000000000E+03  0.00000000000E+00 0.  1.
        -11   -1    0    0    0    0 -0.00000000000E+00 -0.00000000000E+00 -0.50000000000E+03  0.50000000000E+03  0.00000000000E+00 0. -1.
          5    1    1    2  501    0 -0.31301562192E+03 -0.20033137527E+03  0.33446445330E+03  0.50000000000E+03  0.47000000000E+01 0.  1.
         -5    1    1    2    0  501  0.31301562192E+03  0.20033137527E+03 -0.33446445330E+03  0.50000000000E+03  0.47000000000E+01 0. -1.
</event>
<event>
 4    1  0.4903958E-004  0.1000000E+04  0.7546771E-02  0.8684367E-01
         11   -1    0    0    0    0  0.00000000000E+00  0.00000000000E+00  0.50000000000E+03  0.50000000000E+03  0.00000000000E+00 0. -1.
        -11   -1    0    0    0    0 -0.00000000000E+00 -0.00000000000E+00 -0.50000000000E+03  0.50000000000E+03  0.00000000000E+00 0.  1.
          5    1    1    2  501    0  0.64137097025E+02  0.43394803592E+02  0.49394456552E+03  0.50000000000E+03  0.47000000000E+01 0. -1.
         -5    1    1    2    0  501 -0.64137097025E+02 -0.43394803592E+02 -0.49394456552E+03  0.50000000000E+03  0.47000000000E+01 0.  1.
</event>
<event>
 4    1  0.4903958E-004  0.1000000E+04  0.7546771E-02  0.8684367E-01
         11   -1    0    0    0    0  0.00000000000E+00  0.00000000000E+00  0.50000000000E+03  0.50000000000E+03  0.00000000000E+00 0. -1.
        -11   -1    0    0    0    0 -0.00000000000E+00 -0.00000000000E+00 -0.50000000000E+03  0.50000000000E+03  0.00000000000E+00 0.  1.
          5    1    1    2  501    0 -0.34626579355E+03 -0.35494452006E+03  0.63971070814E+02  0.50000000000E+03  0.47000000000E+01 0. -1.
         -5    1    1    2    0  501  0.34626579355E+03  0.35494452006E+03 -0.63971070814E+02  0.50000000000E+03  0.47000000000E+01 0.  1.
</event>
<event>
 4    1  0.4903958E-004  0.1000000E+04  0.7546771E-02  0.8684367E-01
         11   -1    0    0    0    0  0.00000000000E+00  0.00000000000E+00  0.50000000000E+03  0.50000000000E+03  0.00000000000E+00 0. -1.
        -11   -1    0    0    0    0 -0.00000000000E+00 -0.00000000000E+00 -0.50000000000E+03  0.50000000000E+03  0.00000000000E+00 0.  1.
          5    1    1    2  501    0  0.48744784782E+03  0.26251833610E+02  0.10808953180E+03  0.50000000000E+03  0.47000000000E+01 0. -1.
         -5    1    1    2    0  501 -0.48744784782E+03 -0.26251833610E+02 -0.10808953180E+03  0.50000000000E+03  0.47000000000E+01 0.  1.
</event>
<event>
 4    1  0.4903958E-004  0.1000000E+04  0.7546771E-02  0.8684367E-01
         11   -1    0    0    0    0  0.00000000000E+00  0.00000000000E+00  0.50000000000E+03  0.50000000000E+03  0.00000000000E+00 0. -1.
        -11   -1    0    0    0    0 -0.00000000000E+00 -0.00000000000E+00 -0.50000000000E+03  0.50000000000E+03  0.00000000000E+00 0.  1.
          5    1    1    2  501    0 -0.10747508982E+03 -0.17922908953E+03  0.45420694461E+03  0.50000000000E+03  0.47000000000E+01 0. -1.
         -5    1    1    2    0  501  0.10747508982E+03  0.17922908953E+03 -0.45420694461E+03  0.50000000000E+03  0.47000000000E+01 0.  1.
</event>
<event>
 4    1  0.4903958E-004  0.1000000E+04  0.7546771E-02  0.8684367E-01
         11   -1    0    0    0    0  0.00000000000E+00  0.00000000000E+00  0.50000000000E+03  0.50000000000E+03  0.00000000000E+00 0. -1.
        -11   -1    0    0    0    0 -0.00000000000E+00 -0.00000000000E+00 -0.50000000000E+03  0.50000000000E+03  0.00000000000E+00 0.  1.
          5    1    1    2  501    0 -0.25659091298E+03  0.39849999396E+03  0.15917527507E+03  0.50000000000E+03  0.47000000000E+01 0. -1.
         -5    1    1    2    0  501  0.25659091298E+03 -0.39849999396E+03 -0.15917527507E+03  0.50000000000E+03  0.47000000000E+01 0.  1.
</event>
<event>
 4    1  0.4903958E-004  0.1000000E+04  0.7546771E-02  0.8684367E-01
         11   -1    0    0    0    0  0.00000000000E+00  0.00000000000E+00  0.50000000000E+03  0.50000000000E+03  0.00000000000E+00 0. -1.
        -11   -1    0    0    0    0 -0.00000000000E+00 -0.00000000000E+00 -0.50000000000E+03  0.50000000000E+03  0.00000000000E+00 0.  1.
          5    1    1    2  501    0  0.45623298695E+03 -0.20387684039E+03 -0.16235934663E+02  0.50000000000E+03  0.47000000000E+01 0. -1.
         -5    1    1    2    0  501 -0.45623298695E+03  0.20387684039E+03  0.16235934663E+02  0.50000000000E+03  0.47000000000E+01 0.  1.
</event>
<event>
 4    1  0.4903958E-004  0.1000000E+04  0.7546771E-02  0.8684367E-01
         11   -1    0    0    0    0  0.00000000000E+00  0.00000000000E+00  0.50000000000E+03  0.50000000000E+03  0.00000000000E+00 0. -1.
        -11   -1    0    0    0    0 -0.00000000000E+00 -0.00000000000E+00 -0.50000000000E+03  0.50000000000E+03  0.00000000000E+00 0.  1.
          5    1    1    2  501    0 -0.64424376510E+02  0.10803500345E+02  0.49569213640E+03  0.50000000000E+03  0.47000000000E+01 0. -1.
         -5    1    1    2    0  501  0.64424376510E+02 -0.10803500345E+02 -0.49569213640E+03  0.50000000000E+03  0.47000000000E+01 0.  1.
</event>
<event>
 4    1  0.4903958E-004  0.1000000E+04  0.7546771E-02  0.8684367E-01
         11   -1    0    0    0    0  0.00000000000E+00  0.00000000000E+00  0.50000000000E+03  0.50000000000E+03  0.00000000000E+00 0. -1.
        -11   -1    0    0    0    0 -0.00000000000E+00 -0.00000000000E+00 -0.50000000000E+03  0.50000000000E+03  0.00000000000E+00 0.  1.
          5    1    1    2  501    0 -0.37209590529E+02  0.34089256415E+03  0.36384834214E+03  0.50000000000E+03  0.47000000000E+01 0. -1.
         -5    1    1    2    0  501  0.37209590529E+02 -0.34089256415E+03 -0.36384834214E+03  0.50000000000E+03  0.47000000000E+01 0.  1.
</event>
<event>
 4    1  0.4903958E-004  0.1000000E+04  0.7546771E-02  0.8684367E-01
         11   -1    0    0    0    0  0.00000000000E+00  0.00000000000E+00  0.50000000000E+03  0.50000000000E+03  0.00000000000E+00 0. -1.
        -11   -1    0    0    0    0 -0.00000000000E+00 -0.00000000000E+00 -0.50000000000E+03  0.50000000000E+03  0.00000000000E+00 0.  1.
          5    1    1    2  501    0  0.48542213800E+03 -0.94332899685E+02  0.73787275191E+02  0.50000000000E+03  0.47000000000E+01 0. -1.
         -5    1    1    2    0  501 -0.48542213800E+03  0.94332899685E+02 -0.73787275191E+02  0.50000000000E+03  0.47000000000E+01 0.  1.
</event>
<event>
 4    1  0.4903958E-004  0.1000000E+04  0.7546771E-02  0.8684367E-01
         11   -1    0    0    0    0  0.00000000000E+00  0.00000000000E+00  0.50000000000E+03  0.50000000000E+03  0.00000000000E+00 0. -1.
        -11   -1    0    0    0    0 -0.00000000000E+00 -0.00000000000E+00 -0.50000000000E+03  0.50000000000E+03  0.00000000000E+00 0.  1.
          5    1    1    2  501    0 -0.26465282891E+03  0.73780346374E+02  0.41772389283E+03  0.50000000000E+03  0.47000000000E+01 0. -1.
         -5    1    1    2    0  501  0.26465282891E+03 -0.73780346374E+02 -0.41772389283E+03  0.50000000000E+03  0.47000000000E+01 0.  1.
</event>
<event>
 4    1  0.4903958E-004  0.1000000E+04  0.7546771E-02  0.8684367E-01
         11   -1    0    0    0    0  0.00000000000E+00  0.00000000000E+00  0.50000000000E+03  0.50000000000E+03  0.00000000000E+00 0. -1.
        -11   -1    0    0    0    0 -0.00000000000E+00 -0.00000000000E+00 -0.50000000000E+03  0.50000000000E+03  0.00000000000E+00 0.  1.
          5    1    1    2  501    0  0.20506657166E+03 -0.45346876815E+03  0.47871572956E+02  0.50000000000E+03  0.47000000000E+01 0. -1.
         -5    1    1    2    0  501 -0.20506657166E+03  0.45346876815E+03 -0.47871572956E+02  0.50000000000E+03  0.47000000000E+01 0.  1.
</event>
<event>
 4    1  0.4903958E-004  0.1000000E+04  0.7546771E-02  0.8684367E-01
         11   -1    0    0    0    0  0.00000000000E+00  0.00000000000E+00  0.50000000000E+03  0.50000000000E+03  0.00000000000E+00 0. -1.
        -11   -1    0    0    0    0 -0.00000000000E+00 -0.00000000000E+00 -0.50000000000E+03  0.50000000000E+03  0.00000000000E+00 0.  1.
          5    1    1    2  501    0  0.25789985149E+03  0.39630191503E+03 -0.16251267257E+03  0.50000000000E+03  0.47000000000E+01 0. -1.
         -5    1    1    2    0  501 -0.25789985149E+03 -0.39630191503E+03  0.16251267257E+03  0.50000000000E+03  0.47000000000E+01 0.  1.
</event>
<event>
 4    1  0.4903958E-004  0.1000000E+04  0.7546771E-02  0.8684367E-01
         11   -1    0    0    0    0  0.00000000000E+00  0.00000000000E+00  0.50000000000E+03  0.50000000000E+03  0.00000000000E+00 0. -1.
        -11   -1    0    0    0    0 -0.00000000000E+00 -0.00000000000E+00 -0.50000000000E+03  0.50000000000E+03  0.00000000000E+00 0.  1.
          5    1    1    2  501    0 -0.20041934287E+03 -0.29918203879E+03  0.34684305481E+03  0.50000000000E+03  0.47000000000E+01 0. -1.
         -5    1    1    2    0  501  0.20041934287E+03  0.29918203879E+03 -0.34684305481E+03  0.50000000000E+03  0.47000000000E+01 0.  1.
</event>
<event>
 4    1  0.4903958E-004  0.1000000E+04  0.7546771E-02  0.8684367E-01
         11   -1    0    0    0    0  0.00000000000E+00  0.00000000000E+00  0.50000000000E+03  0.50000000000E+03  0.00000000000E+00 0. -1.
        -11   -1    0    0    0    0 -0.00000000000E+00 -0.00000000000E+00 -0.50000000000E+03  0.50000000000E+03  0.00000000000E+00 0.  1.
          5    1    1    2  501    0 -0.37187531635E+03 -0.32131888387E+03  0.91874011342E+02  0.50000000000E+03  0.47000000000E+01 0. -1.
         -5    1    1    2    0  501  0.37187531635E+03  0.32131888387E+03 -0.91874011342E+02  0.50000000000E+03  0.47000000000E+01 0.  1.
</event>
<event>
 4    1  0.4903958E-004  0.1000000E+04  0.7546771E-02  0.8684367E-01
         11   -1    0    0    0    0  0.00000000000E+00  0.00000000000E+00  0.50000000000E+03  0.50000000000E+03  0.00000000000E+00 0.  1.
        -11   -1    0    0    0    0 -0.00000000000E+00 -0.00000000000E+00 -0.50000000000E+03  0.50000000000E+03  0.00000000000E+00 0. -1.
          5    1    1    2  501    0  0.12472192882E+03 -0.13346643937E+03  0.46541278456E+03  0.50000000000E+03  0.47000000000E+01 0.  1.
         -5    1    1    2    0  501 -0.12472192882E+03  0.13346643937E+03 -0.46541278456E+03  0.50000000000E+03  0.47000000000E+01 0. -1.
</event>
<event>
 4    1  0.4903958E-004  0.1000000E+04  0.7546771E-02  0.8684367E-01
         11   -1    0    0    0    0  0.00000000000E+00  0.00000000000E+00  0.50000000000E+03  0.50000000000E+03  0.00000000000E+00 0. -1.
        -11   -1    0    0    0    0 -0.00000000000E+00 -0.00000000000E+00 -0.50000000000E+03  0.50000000000E+03  0.00000000000E+00 0.  1.
          5    1    1    2  501    0 -0.19061364260E+03  0.62688318814E+02  0.45794598365E+03  0.50000000000E+03  0.47000000000E+01 0. -1.
         -5    1    1    2    0  501  0.19061364260E+03 -0.62688318814E+02 -0.45794598365E+03  0.50000000000E+03  0.47000000000E+01 0.  1.
</event>
<event>
 4    1  0.4903958E-004  0.1000000E+04  0.7546771E-02  0.8684367E-01
         11   -1    0    0    0    0  0.00000000000E+00  0.00000000000E+00  0.50000000000E+03  0.50000000000E+03  0.00000000000E+00 0. -1.
        -11   -1    0    0    0    0 -0.00000000000E+00 -0.00000000000E+00 -0.50000000000E+03  0.50000000000E+03  0.00000000000E+00 0.  1.
          5    1    1    2  501    0  0.20184939309E+01  0.49746357824E+03  0.50038225505E+02  0.50000000000E+03  0.47000000000E+01 0. -1.
         -5    1    1    2    0  501 -0.20184939309E+01 -0.49746357824E+03 -0.50038225505E+02  0.50000000000E+03  0.47000000000E+01 0.  1.
</event>
<event>
 4    1  0.4903958E-004  0.1000000E+04  0.7546771E-02  0.8684367E-01
         11   -1    0    0    0    0  0.00000000000E+00  0.00000000000E+00  0.50000000000E+03  0.50000000000E+03  0.00000000000E+00 0. -1.
        -11   -1    0    0    0    0 -0.00000000000E+00 -0.00000000000E+00 -0.50000000000E+03  0.50000000000E+03  0.00000000000E+00 0.  1.
          5    1    1    2  501    0  0.29244065332E+03 -0.37418838133E+03  0.15633115353E+03  0.50000000000E+03  0.47000000000E+01 0. -1.
         -5    1    1    2    0  501 -0.29244065332E+03  0.37418838133E+03 -0.15633115353E+03  0.50000000000E+03  0.47000000000E+01 0.  1.
</event>
<event>
 4    1  0.4903958E-004  0.1000000E+04  0.7546771E-02  0.8684367E-01
         11   -1    0    0    0    0  0.00000000000E+00  0.00000000000E+00  0.50000000000E+03  0.50000000000E+03  0.00000000000E+00 0. -1.
        -11   -1    0    0    0    0 -0.00000000000E+00 -0.00000000000E+00 -0.50000000000E+03  0.50000000000E+03  0.00000000000E+00 0.  1.
          5    1    1    2  501    0  0.47283451188E+02 -0.27292099355E+03  0.41624069542E+03  0.50000000000E+03  0.47000000000E+01 0. -1.
         -5    1    1    2    0  501 -0.47283451188E+02  0.27292099355E+03 -0.41624069542E+03  0.50000000000E+03  0.47000000000E+01 0.  1.
</event>
<event>
 4    1  0.4903958E-004  0.1000000E+04  0.7546771E-02  0.8684367E-01
         11   -1    0    0    0    0  0.00000000000E+00  0.00000000000E+00  0.50000000000E+03  0.50000000000E+03  0.00000000000E+00 0. -1.
        -11   -1    0    0    0    0 -0.00000000000E+00 -0.00000000000E+00 -0.50000000000E+03  0.50000000000E+03  0.00000000000E+00 0.  1.
          5    1    1    2  501    0 -0.35463055014E+03 -0.20452945061E+02  0.35184763740E+03  0.50000000000E+03  0.47000000000E+01 0. -1.
         -5    1    1    2    0  501  0.35463055014E+03  0.20452945061E+02 -0.35184763740E+03  0.50000000000E+03  0.47000000000E+01 0.  1.
</event>
<event>
 4    1  0.4903958E-004  0.1000000E+04  0.7546771E-02  0.8684367E-01
         11   -1    0    0    0    0  0.00000000000E+00  0.00000000000E+00  0.50000000000E+03  0.50000000000E+03  0.00000000000E+00 0.  1.
        -11   -1    0    0    0    0 -0.00000000000E+00 -0.00000000000E+00 -0.50000000000E+03  0.50000000000E+03  0.00000000000E+00 0. -1.
          5    1    1    2  501    0  0.29708735238E+03  0.24896538666E+03  0.31580571765E+03  0.50000000000E+03  0.47000000000E+01 0.  1.
         -5    1    1    2    0  501 -0.29708735238E+03 -0.24896538666E+03 -0.31580571765E+03  0.50000000000E+03  0.47000000000E+01 0. -1.
</event>
<event>
 4    1  0.4903958E-004  0.1000000E+04  0.7546771E-02  0.8684367E-01
         11   -1    0    0    0    0  0.00000000000E+00  0.00000000000E+00  0.50000000000E+03  0.50000000000E+03  0.00000000000E+00 0. -1.
        -11   -1    0    0    0    0 -0.00000000000E+00 -0.00000000000E+00 -0.50000000000E+03  0.50000000000E+03  0.00000000000E+00 0.  1.
          5    1    1    2  501    0  0.38043512548E+03  0.13018393480E+03  0.29715175992E+03  0.50000000000E+03  0.47000000000E+01 0. -1.
         -5    1    1    2    0  501 -0.38043512548E+03 -0.13018393480E+03 -0.29715175992E+03  0.50000000000E+03  0.47000000000E+01 0.  1.
</event>
<event>
 4    1  0.4903958E-004  0.1000000E+04  0.7546771E-02  0.8684367E-01
         11   -1    0    0    0    0  0.00000000000E+00  0.00000000000E+00  0.50000000000E+03  0.50000000000E+03  0.00000000000E+00 0. -1.
        -11   -1    0    0    0    0 -0.00000000000E+00 -0.00000000000E+00 -0.50000000000E+03  0.50000000000E+03  0.00000000000E+00 0.  1.
          5    1    1    2  501    0 -0.22118482851E+03 -0.21079545593E+03  0.39575302576E+03  0.50000000000E+03  0.47000000000E+01 0. -1.
         -5    1    1    2    0  501  0.22118482851E+03  0.21079545593E+03 -0.39575302576E+03  0.50000000000E+03  0.47000000000E+01 0.  1.
</event>
<event>
 4    1  0.4903958E-004  0.1000000E+04  0.7546771E-02  0.8684367E-01
         11   -1    0    0    0    0  0.00000000000E+00  0.00000000000E+00  0.50000000000E+03  0.50000000000E+03  0.00000000000E+00 0.  1.
        -11   -1    0    0    0    0 -0.00000000000E+00 -0.00000000000E+00 -0.50000000000E+03  0.50000000000E+03  0.00000000000E+00 0. -1.
          5    1    1    2  501    0  0.43385694782E+03  0.24598665872E+03 -0.35165644645E+02  0.50000000000E+03  0.47000000000E+01 0.  1.
         -5    1    1    2    0  501 -0.43385694782E+03 -0.24598665872E+03  0.35165644645E+02  0.50000000000E+03  0.47000000000E+01 0. -1.
</event>
<event>
 4    1  0.4903958E-004  0.1000000E+04  0.7546771E-02  0.8684367E-01
         11   -1    0    0    0    0  0.00000000000E+00  0.00000000000E+00  0.50000000000E+03  0.50000000000E+03  0.00000000000E+00 0.  1.
        -11   -1    0    0    0    0 -0.00000000000E+00 -0.00000000000E+00 -0.50000000000E+03  0.50000000000E+03  0.00000000000E+00 0. -1.
          5    1    1    2  501    0  0.85340743524E+02 -0.25692595926E+01 -0.49263400857E+03  0.50000000000E+03  0.47000000000E+01 0. -1.
         -5    1    1    2    0  501 -0.85340743524E+02  0.25692595926E+01  0.49263400857E+03  0.50000000000E+03  0.47000000000E+01 0.  1.
</event>
<event>
 4    1  0.4903958E-004  0.1000000E+04  0.7546771E-02  0.8684367E-01
         11   -1    0    0    0    0  0.00000000000E+00  0.00000000000E+00  0.50000000000E+03  0.50000000000E+03  0.00000000000E+00 0.  1.
        -11   -1    0    0    0    0 -0.00000000000E+00 -0.00000000000E+00 -0.50000000000E+03  0.50000000000E+03  0.00000000000E+00 0. -1.
          5    1    1    2  501    0 -0.14748345578E+03 -0.33026590579E+03  0.34518251947E+03  0.50000000000E+03  0.47000000000E+01 0.  1.
         -5    1    1    2    0  501  0.14748345578E+03  0.33026590579E+03 -0.34518251947E+03  0.50000000000E+03  0.47000000000E+01 0. -1.
</event>
<event>
 4    1  0.4903958E-004  0.1000000E+04  0.7546771E-02  0.8684367E-01
         11   -1    0    0    0    0  0.00000000000E+00  0.00000000000E+00  0.50000000000E+03  0.50000000000E+03  0.00000000000E+00 0. -1.
        -11   -1    0    0    0    0 -0.00000000000E+00 -0.00000000000E+00 -0.50000000000E+03  0.50000000000E+03  0.00000000000E+00 0.  1.
          5    1    1    2  501    0  0.45046757887E+03  0.14726001836E+03  0.15928388926E+03  0.50000000000E+03  0.47000000000E+01 0. -1.
         -5    1    1    2    0  501 -0.45046757887E+03 -0.14726001836E+03 -0.15928388926E+03  0.50000000000E+03  0.47000000000E+01 0.  1.
</event>
<event>
 4    1  0.4903958E-004  0.1000000E+04  0.7546771E-02  0.8684367E-01
         11   -1    0    0    0    0  0.00000000000E+00  0.00000000000E+00  0.50000000000E+03  0.50000000000E+03  0.00000000000E+00 0. -1.
        -11   -1    0    0    0    0 -0.00000000000E+00 -0.00000000000E+00 -0.50000000000E+03  0.50000000000E+03  0.00000000000E+00 0.  1.
          5    1    1    2  501    0  0.16447721439E+03  0.47164917494E+03 -0.21730433153E+02  0.50000000000E+03  0.47000000000E+01 0. -1.
         -5    1    1    2    0  501 -0.16447721439E+03 -0.47164917494E+03  0.21730433153E+02  0.50000000000E+03  0.47000000000E+01 0.  1.
</event>
<event>
 4    1  0.4903958E-004  0.1000000E+04  0.7546771E-02  0.8684367E-01
         11   -1    0    0    0    0  0.00000000000E+00  0.00000000000E+00  0.50000000000E+03  0.50000000000E+03  0.00000000000E+00 0. -1.
        -11   -1    0    0    0    0 -0.00000000000E+00 -0.00000000000E+00 -0.50000000000E+03  0.50000000000E+03  0.00000000000E+00 0.  1.
          5    1    1    2  501    0 -0.36712275285E+03  0.11913617322E+03  0.31781341472E+03  0.50000000000E+03  0.47000000000E+01 0. -1.
         -5    1    1    2    0  501  0.36712275285E+03 -0.11913617322E+03 -0.31781341472E+03  0.50000000000E+03  0.47000000000E+01 0.  1.
</event>
<event>
 4    1  0.4903958E-004  0.1000000E+04  0.7546771E-02  0.8684367E-01
         11   -1    0    0    0    0  0.00000000000E+00  0.00000000000E+00  0.50000000000E+03  0.50000000000E+03  0.00000000000E+00 0. -1.
        -11   -1    0    0    0    0 -0.00000000000E+00 -0.00000000000E+00 -0.50000000000E+03  0.50000000000E+03  0.00000000000E+00 0.  1.
          5    1    1    2  501    0 -0.14406065671E+03  0.17016941785E+03  0.44751179472E+03  0.50000000000E+03  0.47000000000E+01 0. -1.
         -5    1    1    2    0  501  0.14406065671E+03 -0.17016941785E+03 -0.44751179472E+03  0.50000000000E+03  0.47000000000E+01 0.  1.
</event>
<event>
 4    1  0.4903958E-004  0.1000000E+04  0.7546771E-02  0.8684367E-01
         11   -1    0    0    0    0  0.00000000000E+00  0.00000000000E+00  0.50000000000E+03  0.50000000000E+03  0.00000000000E+00 0. -1.
        -11   -1    0    0    0    0 -0.00000000000E+00 -0.00000000000E+00 -0.50000000000E+03  0.50000000000E+03  0.00000000000E+00 0.  1.
          5    1    1    2  501    0  0.19223728061E+03 -0.24511982394E+03  0.39107417437E+03  0.50000000000E+03  0.47000000000E+01 0. -1.
         -5    1    1    2    0  501 -0.19223728061E+03  0.24511982394E+03 -0.39107417437E+03  0.50000000000E+03  0.47000000000E+01 0.  1.
</event>
<event>
 4    1  0.4903958E-004  0.1000000E+04  0.7546771E-02  0.8684367E-01
         11   -1    0    0    0    0  0.00000000000E+00  0.00000000000E+00  0.50000000000E+03  0.50000000000E+03  0.00000000000E+00 0.  1.
        -11   -1    0    0    0    0 -0.00000000000E+00 -0.00000000000E+00 -0.50000000000E+03  0.50000000000E+03  0.00000000000E+00 0. -1.
          5    1    1    2  501    0  0.46023530560E+03  0.15799143650E+03 -0.11489159881E+03  0.50000000000E+03  0.47000000000E+01 0. -1.
         -5    1    1    2    0  501 -0.46023530560E+03 -0.15799143650E+03  0.11489159881E+03  0.50000000000E+03  0.47000000000E+01 0.  1.
</event>
<event>
 4    1  0.4903958E-004  0.1000000E+04  0.7546771E-02  0.8684367E-01
         11   -1    0    0    0    0  0.00000000000E+00  0.00000000000E+00  0.50000000000E+03  0.50000000000E+03  0.00000000000E+00 0. -1.
        -11   -1    0    0    0    0 -0.00000000000E+00 -0.00000000000E+00 -0.50000000000E+03  0.50000000000E+03  0.00000000000E+00 0.  1.
          5    1    1    2  501    0  0.62973632075E+02 -0.85942671040E+02  0.48849369388E+03  0.50000000000E+03  0.47000000000E+01 0. -1.
         -5    1    1    2    0  501 -0.62973632075E+02  0.85942671040E+02 -0.48849369388E+03  0.50000000000E+03  0.47000000000E+01 0.  1.
</event>
<event>
 4    1  0.4903958E-004  0.1000000E+04  0.7546771E-02  0.8684367E-01
         11   -1    0    0    0    0  0.00000000000E+00  0.00000000000E+00  0.50000000000E+03  0.50000000000E+03  0.00000000000E+00 0. -1.
        -11   -1    0    0    0    0 -0.00000000000E+00 -0.00000000000E+00 -0.50000000000E+03  0.50000000000E+03  0.00000000000E+00 0.  1.
          5    1    1    2  501    0 -0.10449457310E+03  0.40633266769E+03  0.27194219489E+03  0.50000000000E+03  0.47000000000E+01 0. -1.
         -5    1    1    2    0  501  0.10449457310E+03 -0.40633266769E+03 -0.27194219489E+03  0.50000000000E+03  0.47000000000E+01 0.  1.
</event>
<event>
 4    1  0.4903958E-004  0.1000000E+04  0.7546771E-02  0.8684367E-01
         11   -1    0    0    0    0  0.00000000000E+00  0.00000000000E+00  0.50000000000E+03  0.50000000000E+03  0.00000000000E+00 0. -1.
        -11   -1    0    0    0    0 -0.00000000000E+00 -0.00000000000E+00 -0.50000000000E+03  0.50000000000E+03  0.00000000000E+00 0.  1.
          5    1    1    2  501    0  0.10849936260E+03 -0.42554866261E+03  0.23898563568E+03  0.50000000000E+03  0.47000000000E+01 0. -1.
         -5    1    1    2    0  501 -0.10849936260E+03  0.42554866261E+03 -0.23898563568E+03  0.50000000000E+03  0.47000000000E+01 0.  1.
</event>
<event>
 4    1  0.4903958E-004  0.1000000E+04  0.7546771E-02  0.8684367E-01
         11   -1    0    0    0    0  0.00000000000E+00  0.00000000000E+00  0.50000000000E+03  0.50000000000E+03  0.00000000000E+00 0. -1.
        -11   -1    0    0    0    0 -0.00000000000E+00 -0.00000000000E+00 -0.50000000000E+03  0.50000000000E+03  0.00000000000E+00 0.  1.
          5    1    1    2  501    0  0.45427268745E+03  0.19343215357E+02  0.20794248113E+03  0.50000000000E+03  0.47000000000E+01 0. -1.
         -5    1    1    2    0  501 -0.45427268745E+03 -0.19343215357E+02 -0.20794248113E+03  0.50000000000E+03  0.47000000000E+01 0.  1.
</event>
<event>
 4    1  0.4903958E-004  0.1000000E+04  0.7546771E-02  0.8684367E-01
         11   -1    0    0    0    0  0.00000000000E+00  0.00000000000E+00  0.50000000000E+03  0.50000000000E+03  0.00000000000E+00 0. -1.
        -11   -1    0    0    0    0 -0.00000000000E+00 -0.00000000000E+00 -0.50000000000E+03  0.50000000000E+03  0.00000000000E+00 0.  1.
          5    1    1    2  501    0  0.11345848654E+02 -0.48685180237E+03  0.11324532770E+03  0.50000000000E+03  0.47000000000E+01 0. -1.
         -5    1    1    2    0  501 -0.11345848654E+02  0.48685180237E+03 -0.11324532770E+03  0.50000000000E+03  0.47000000000E+01 0.  1.
</event>
<event>
 4    1  0.4903958E-004  0.1000000E+04  0.7546771E-02  0.8684367E-01
         11   -1    0    0    0    0  0.00000000000E+00  0.00000000000E+00  0.50000000000E+03  0.50000000000E+03  0.00000000000E+00 0. -1.
        -11   -1    0    0    0    0 -0.00000000000E+00 -0.00000000000E+00 -0.50000000000E+03  0.50000000000E+03  0.00000000000E+00 0.  1.
          5    1    1    2  501    0  0.43959589289E+03 -0.23716803338E+03  0.22015560308E+02  0.50000000000E+03  0.47000000000E+01 0. -1.
         -5    1    1    2    0  501 -0.43959589289E+03  0.23716803338E+03 -0.22015560308E+02  0.50000000000E+03  0.47000000000E+01 0.  1.
</event>
<event>
 4    1  0.4903958E-004  0.1000000E+04  0.7546771E-02  0.8684367E-01
         11   -1    0    0    0    0  0.00000000000E+00  0.00000000000E+00  0.50000000000E+03  0.50000000000E+03  0.00000000000E+00 0.  1.
        -11   -1    0    0    0    0 -0.00000000000E+00 -0.00000000000E+00 -0.50000000000E+03  0.50000000000E+03  0.00000000000E+00 0. -1.
          5    1    1    2  501    0  0.16668519518E+03 -0.45643431498E+03  0.11773560132E+03  0.50000000000E+03  0.47000000000E+01 0.  1.
         -5    1    1    2    0  501 -0.16668519518E+03  0.45643431498E+03 -0.11773560132E+03  0.50000000000E+03  0.47000000000E+01 0. -1.
</event>
<event>
 4    1  0.4903958E-004  0.1000000E+04  0.7546771E-02  0.8684367E-01
         11   -1    0    0    0    0  0.00000000000E+00  0.00000000000E+00  0.50000000000E+03  0.50000000000E+03  0.00000000000E+00 0. -1.
        -11   -1    0    0    0    0 -0.00000000000E+00 -0.00000000000E+00 -0.50000000000E+03  0.50000000000E+03  0.00000000000E+00 0.  1.
          5    1    1    2  501    0  0.12898993460E+03  0.29235767709E+02  0.48216675192E+03  0.50000000000E+03  0.47000000000E+01 0. -1.
         -5    1    1    2    0  501 -0.12898993460E+03 -0.29235767709E+02 -0.48216675192E+03  0.50000000000E+03  0.47000000000E+01 0.  1.
</event>
<event>
 4    1  0.4903958E-004  0.1000000E+04  0.7546771E-02  0.8684367E-01
         11   -1    0    0    0    0  0.00000000000E+00  0.00000000000E+00  0.50000000000E+03  0.50000000000E+03  0.00000000000E+00 0. -1.
        -11   -1    0    0    0    0 -0.00000000000E+00 -0.00000000000E+00 -0.50000000000E+03  0.50000000000E+03  0.00000000000E+00 0.  1.
          5    1    1    2  501    0 -0.13458949284E+03 -0.16099380226E+03  0.45381116563E+03  0.50000000000E+03  0.47000000000E+01 0. -1.
         -5    1    1    2    0  501  0.13458949284E+03  0.16099380226E+03 -0.45381116563E+03  0.50000000000E+03  0.47000000000E+01 0.  1.
</event>
<event>
 4    1  0.4903958E-004  0.1000000E+04  0.7546771E-02  0.8684367E-01
         11   -1    0    0    0    0  0.00000000000E+00  0.00000000000E+00  0.50000000000E+03  0.50000000000E+03  0.00000000000E+00 0. -1.
        -11   -1    0    0    0    0 -0.00000000000E+00 -0.00000000000E+00 -0.50000000000E+03  0.50000000000E+03  0.00000000000E+00 0.  1.
          5    1    1    2  501    0 -0.31819058055E+03 -0.19050431711E+03  0.33532188955E+03  0.50000000000E+03  0.47000000000E+01 0. -1.
         -5    1    1    2    0  501  0.31819058055E+03  0.19050431711E+03 -0.33532188955E+03  0.50000000000E+03  0.47000000000E+01 0.  1.
</event>
<event>
 4    1  0.4903958E-004  0.1000000E+04  0.7546771E-02  0.8684367E-01
         11   -1    0    0    0    0  0.00000000000E+00  0.00000000000E+00  0.50000000000E+03  0.50000000000E+03  0.00000000000E+00 0. -1.
        -11   -1    0    0    0    0 -0.00000000000E+00 -0.00000000000E+00 -0.50000000000E+03  0.50000000000E+03  0.00000000000E+00 0.  1.
          5    1    1    2  501    0  0.19126557294E+03 -0.25413500795E+03  0.38576001392E+03  0.50000000000E+03  0.47000000000E+01 0. -1.
         -5    1    1    2    0  501 -0.19126557294E+03  0.25413500795E+03 -0.38576001392E+03  0.50000000000E+03  0.47000000000E+01 0.  1.
</event>
<event>
 4    1  0.4903958E-004  0.1000000E+04  0.7546771E-02  0.8684367E-01
         11   -1    0    0    0    0  0.00000000000E+00  0.00000000000E+00  0.50000000000E+03  0.50000000000E+03  0.00000000000E+00 0. -1.
        -11   -1    0    0    0    0 -0.00000000000E+00 -0.00000000000E+00 -0.50000000000E+03  0.50000000000E+03  0.00000000000E+00 0.  1.
          5    1    1    2  501    0 -0.39920423659E+03 -0.29438245623E+03  0.62871750049E+02  0.50000000000E+03  0.47000000000E+01 0. -1.
         -5    1    1    2    0  501  0.39920423659E+03  0.29438245623E+03 -0.62871750049E+02  0.50000000000E+03  0.47000000000E+01 0.  1.
</event>
<event>
 4    1  0.4903958E-004  0.1000000E+04  0.7546771E-02  0.8684367E-01
         11   -1    0    0    0    0  0.00000000000E+00  0.00000000000E+00  0.50000000000E+03  0.50000000000E+03  0.00000000000E+00 0. -1.
        -11   -1    0    0    0    0 -0.00000000000E+00 -0.00000000000E+00 -0.50000000000E+03  0.50000000000E+03  0.00000000000E+00 0.  1.
          5    1    1    2  501    0 -0.13378367360E+03  0.31145108918E+02  0.48073882813E+03  0.50000000000E+03  0.47000000000E+01 0. -1.
         -5    1    1    2    0  501  0.13378367360E+03 -0.31145108918E+02 -0.48073882813E+03  0.50000000000E+03  0.47000000000E+01 0.  1.
</event>
<event>
 4    1  0.4903958E-004  0.1000000E+04  0.7546771E-02  0.8684367E-01
         11   -1    0    0    0    0  0.00000000000E+00  0.00000000000E+00  0.50000000000E+03  0.50000000000E+03  0.00000000000E+00 0. -1.
        -11   -1    0    0    0    0 -0.00000000000E+00 -0.00000000000E+00 -0.50000000000E+03  0.50000000000E+03  0.00000000000E+00 0.  1.
          5    1    1    2  501    0 -0.96422353446E+01 -0.39452993135E+03  0.30697079758E+03  0.50000000000E+03  0.47000000000E+01 0. -1.
         -5    1    1    2    0  501  0.96422353446E+01  0.39452993135E+03 -0.30697079758E+03  0.50000000000E+03  0.47000000000E+01 0.  1.
</event>
<event>
 4    1  0.4903958E-004  0.1000000E+04  0.7546771E-02  0.8684367E-01
         11   -1    0    0    0    0  0.00000000000E+00  0.00000000000E+00  0.50000000000E+03  0.50000000000E+03  0.00000000000E+00 0. -1.
        -11   -1    0    0    0    0 -0.00000000000E+00 -0.00000000000E+00 -0.50000000000E+03  0.50000000000E+03  0.00000000000E+00 0.  1.
          5    1    1    2  501    0 -0.18261806893E+03  0.16772974515E+03  0.43416043520E+03  0.50000000000E+03  0.47000000000E+01 0. -1.
         -5    1    1    2    0  501  0.18261806893E+03 -0.16772974515E+03 -0.43416043520E+03  0.50000000000E+03  0.47000000000E+01 0.  1.
</event>
<event>
 4    1  0.4903958E-004  0.1000000E+04  0.7546771E-02  0.8684367E-01
         11   -1    0    0    0    0  0.00000000000E+00  0.00000000000E+00  0.50000000000E+03  0.50000000000E+03  0.00000000000E+00 0. -1.
        -11   -1    0    0    0    0 -0.00000000000E+00 -0.00000000000E+00 -0.50000000000E+03  0.50000000000E+03  0.00000000000E+00 0.  1.
          5    1    1    2  501    0  0.13885442502E+03  0.41145095468E+03  0.24780127229E+03  0.50000000000E+03  0.47000000000E+01 0. -1.
         -5    1    1    2    0  501 -0.13885442502E+03 -0.41145095468E+03 -0.24780127229E+03  0.50000000000E+03  0.47000000000E+01 0.  1.
</event>
<event>
 4    1  0.4903958E-004  0.1000000E+04  0.7546771E-02  0.8684367E-01
         11   -1    0    0    0    0  0.00000000000E+00  0.00000000000E+00  0.50000000000E+03  0.50000000000E+03  0.00000000000E+00 0. -1.
        -11   -1    0    0    0    0 -0.00000000000E+00 -0.00000000000E+00 -0.50000000000E+03  0.50000000000E+03  0.00000000000E+00 0.  1.
          5    1    1    2  501    0  0.31965880768E+03  0.13501018480E+03  0.35995611771E+03  0.50000000000E+03  0.47000000000E+01 0. -1.
         -5    1    1    2    0  501 -0.31965880768E+03 -0.13501018480E+03 -0.35995611771E+03  0.50000000000E+03  0.47000000000E+01 0.  1.
</event>
<event>
 4    1  0.4903958E-004  0.1000000E+04  0.7546771E-02  0.8684367E-01
         11   -1    0    0    0    0  0.00000000000E+00  0.00000000000E+00  0.50000000000E+03  0.50000000000E+03  0.00000000000E+00 0. -1.
        -11   -1    0    0    0    0 -0.00000000000E+00 -0.00000000000E+00 -0.50000000000E+03  0.50000000000E+03  0.00000000000E+00 0.  1.
          5    1    1    2  501    0  0.23889210082E+03 -0.67679883503E+02  0.43396763420E+03  0.50000000000E+03  0.47000000000E+01 0. -1.
         -5    1    1    2    0  501 -0.23889210082E+03  0.67679883503E+02 -0.43396763420E+03  0.50000000000E+03  0.47000000000E+01 0.  1.
</event>
<event>
 4    1  0.4903958E-004  0.1000000E+04  0.7546771E-02  0.8684367E-01
         11   -1    0    0    0    0  0.00000000000E+00  0.00000000000E+00  0.50000000000E+03  0.50000000000E+03  0.00000000000E+00 0. -1.
        -11   -1    0    0    0    0 -0.00000000000E+00 -0.00000000000E+00 -0.50000000000E+03  0.50000000000E+03  0.00000000000E+00 0.  1.
          5    1    1    2  501    0  0.34293998099E+03  0.85485755439E+02  0.35364143572E+03  0.50000000000E+03  0.47000000000E+01 0. -1.
         -5    1    1    2    0  501 -0.34293998099E+03 -0.85485755439E+02 -0.35364143572E+03  0.50000000000E+03  0.47000000000E+01 0.  1.
</event>
<event>
 4    1  0.4903958E-004  0.1000000E+04  0.7546771E-02  0.8684367E-01
         11   -1    0    0    0    0  0.00000000000E+00  0.00000000000E+00  0.50000000000E+03  0.50000000000E+03  0.00000000000E+00 0. -1.
        -11   -1    0    0    0    0 -0.00000000000E+00 -0.00000000000E+00 -0.50000000000E+03  0.50000000000E+03  0.00000000000E+00 0.  1.
          5    1    1    2  501    0  0.26143024273E+03 -0.37822346544E+03 -0.19641575390E+03  0.50000000000E+03  0.47000000000E+01 0. -1.
         -5    1    1    2    0  501 -0.26143024273E+03  0.37822346544E+03  0.19641575390E+03  0.50000000000E+03  0.47000000000E+01 0.  1.
</event>
<event>
 4    1  0.4903958E-004  0.1000000E+04  0.7546771E-02  0.8684367E-01
         11   -1    0    0    0    0  0.00000000000E+00  0.00000000000E+00  0.50000000000E+03  0.50000000000E+03  0.00000000000E+00 0. -1.
        -11   -1    0    0    0    0 -0.00000000000E+00 -0.00000000000E+00 -0.50000000000E+03  0.50000000000E+03  0.00000000000E+00 0.  1.
          5    1    1    2  501    0 -0.23821249748E+03 -0.23467134750E+03  0.37170159363E+03  0.50000000000E+03  0.47000000000E+01 0. -1.
         -5    1    1    2    0  501  0.23821249748E+03  0.23467134750E+03 -0.37170159363E+03  0.50000000000E+03  0.47000000000E+01 0.  1.
</event>
<event>
 4    1  0.4903958E-004  0.1000000E+04  0.7546771E-02  0.8684367E-01
         11   -1    0    0    0    0  0.00000000000E+00  0.00000000000E+00  0.50000000000E+03  0.50000000000E+03  0.00000000000E+00 0. -1.
        -11   -1    0    0    0    0 -0.00000000000E+00 -0.00000000000E+00 -0.50000000000E+03  0.50000000000E+03  0.00000000000E+00 0.  1.
          5    1    1    2  501    0  0.16024228613E+03  0.32050413487E+03  0.34867953663E+03  0.50000000000E+03  0.47000000000E+01 0. -1.
         -5    1    1    2    0  501 -0.16024228613E+03 -0.32050413487E+03 -0.34867953663E+03  0.50000000000E+03  0.47000000000E+01 0.  1.
</event>
<event>
 4    1  0.4903958E-004  0.1000000E+04  0.7546771E-02  0.8684367E-01
         11   -1    0    0    0    0  0.00000000000E+00  0.00000000000E+00  0.50000000000E+03  0.50000000000E+03  0.00000000000E+00 0. -1.
        -11   -1    0    0    0    0 -0.00000000000E+00 -0.00000000000E+00 -0.50000000000E+03  0.50000000000E+03  0.00000000000E+00 0.  1.
          5    1    1    2  501    0 -0.66556929010E+01 -0.34169736506E+03  0.36493358637E+03  0.50000000000E+03  0.47000000000E+01 0. -1.
         -5    1    1    2    0  501  0.66556929010E+01  0.34169736506E+03 -0.36493358637E+03  0.50000000000E+03  0.47000000000E+01 0.  1.
</event>
<event>
 4    1  0.4903958E-004  0.1000000E+04  0.7546771E-02  0.8684367E-01
         11   -1    0    0    0    0  0.00000000000E+00  0.00000000000E+00  0.50000000000E+03  0.50000000000E+03  0.00000000000E+00 0. -1.
        -11   -1    0    0    0    0 -0.00000000000E+00 -0.00000000000E+00 -0.50000000000E+03  0.50000000000E+03  0.00000000000E+00 0.  1.
          5    1    1    2  501    0  0.23590888594E+03  0.16189524058E+02  0.44052560294E+03  0.50000000000E+03  0.47000000000E+01 0. -1.
         -5    1    1    2    0  501 -0.23590888594E+03 -0.16189524058E+02 -0.44052560294E+03  0.50000000000E+03  0.47000000000E+01 0.  1.
</event>
<event>
 4    1  0.4903958E-004  0.1000000E+04  0.7546771E-02  0.8684367E-01
         11   -1    0    0    0    0  0.00000000000E+00  0.00000000000E+00  0.50000000000E+03  0.50000000000E+03  0.00000000000E+00 0. -1.
        -11   -1    0    0    0    0 -0.00000000000E+00 -0.00000000000E+00 -0.50000000000E+03  0.50000000000E+03  0.00000000000E+00 0.  1.
          5    1    1    2  501    0 -0.26515060880E+03  0.41292784889E+03 -0.95726988160E+02  0.50000000000E+03  0.47000000000E+01 0. -1.
         -5    1    1    2    0  501  0.26515060880E+03 -0.41292784889E+03  0.95726988160E+02  0.50000000000E+03  0.47000000000E+01 0.  1.
</event>
<event>
 4    1  0.4903958E-004  0.1000000E+04  0.7546771E-02  0.8684367E-01
         11   -1    0    0    0    0  0.00000000000E+00  0.00000000000E+00  0.50000000000E+03  0.50000000000E+03  0.00000000000E+00 0. -1.
        -11   -1    0    0    0    0 -0.00000000000E+00 -0.00000000000E+00 -0.50000000000E+03  0.50000000000E+03  0.00000000000E+00 0.  1.
          5    1    1    2  501    0 -0.41809445723E+03 -0.14930866644E+03  0.22996055522E+03  0.50000000000E+03  0.47000000000E+01 0. -1.
         -5    1    1    2    0  501  0.41809445723E+03  0.14930866644E+03 -0.22996055522E+03  0.50000000000E+03  0.47000000000E+01 0.  1.
</event>
<event>
 4    1  0.4903958E-004  0.1000000E+04  0.7546771E-02  0.8684367E-01
         11   -1    0    0    0    0  0.00000000000E+00  0.00000000000E+00  0.50000000000E+03  0.50000000000E+03  0.00000000000E+00 0. -1.
        -11   -1    0    0    0    0 -0.00000000000E+00 -0.00000000000E+00 -0.50000000000E+03  0.50000000000E+03  0.00000000000E+00 0.  1.
          5    1    1    2  501    0 -0.17139538338E+03 -0.35688967072E+03  0.30533800203E+03  0.50000000000E+03  0.47000000000E+01 0. -1.
         -5    1    1    2    0  501  0.17139538338E+03  0.35688967072E+03 -0.30533800203E+03  0.50000000000E+03  0.47000000000E+01 0.  1.
</event>
<event>
 4    1  0.4903958E-004  0.1000000E+04  0.7546771E-02  0.8684367E-01
         11   -1    0    0    0    0  0.00000000000E+00  0.00000000000E+00  0.50000000000E+03  0.50000000000E+03  0.00000000000E+00 0.  1.
        -11   -1    0    0    0    0 -0.00000000000E+00 -0.00000000000E+00 -0.50000000000E+03  0.50000000000E+03  0.00000000000E+00 0. -1.
          5    1    1    2  501    0  0.14419760779E+02  0.18154459402E+03 -0.46563026199E+03  0.50000000000E+03  0.47000000000E+01 0. -1.
         -5    1    1    2    0  501 -0.14419760779E+02 -0.18154459402E+03  0.46563026199E+03  0.50000000000E+03  0.47000000000E+01 0.  1.
</event>
<event>
 4    1  0.4903958E-004  0.1000000E+04  0.7546771E-02  0.8684367E-01
         11   -1    0    0    0    0  0.00000000000E+00  0.00000000000E+00  0.50000000000E+03  0.50000000000E+03  0.00000000000E+00 0. -1.
        -11   -1    0    0    0    0 -0.00000000000E+00 -0.00000000000E+00 -0.50000000000E+03  0.50000000000E+03  0.00000000000E+00 0.  1.
          5    1    1    2  501    0  0.44489377121E+03 -0.22374579157E+03 -0.44556291240E+02  0.50000000000E+03  0.47000000000E+01 0. -1.
         -5    1    1    2    0  501 -0.44489377121E+03  0.22374579157E+03  0.44556291240E+02  0.50000000000E+03  0.47000000000E+01 0.  1.
</event>
<event>
 4    1  0.4903958E-004  0.1000000E+04  0.7546771E-02  0.8684367E-01
         11   -1    0    0    0    0  0.00000000000E+00  0.00000000000E+00  0.50000000000E+03  0.50000000000E+03  0.00000000000E+00 0. -1.
        -11   -1    0    0    0    0 -0.00000000000E+00 -0.00000000000E+00 -0.50000000000E+03  0.50000000000E+03  0.00000000000E+00 0.  1.
          5    1    1    2  501    0  0.60766357503E+02  0.42049181590E+03 -0.26357540203E+03  0.50000000000E+03  0.47000000000E+01 0. -1.
         -5    1    1    2    0  501 -0.60766357503E+02 -0.42049181590E+03  0.26357540203E+03  0.50000000000E+03  0.47000000000E+01 0.  1.
</event>
<event>
 4    1  0.4903958E-004  0.1000000E+04  0.7546771E-02  0.8684367E-01
         11   -1    0    0    0    0  0.00000000000E+00  0.00000000000E+00  0.50000000000E+03  0.50000000000E+03  0.00000000000E+00 0. -1.
        -11   -1    0    0    0    0 -0.00000000000E+00 -0.00000000000E+00 -0.50000000000E+03  0.50000000000E+03  0.00000000000E+00 0.  1.
          5    1    1    2  501    0 -0.40152870872E+03  0.27338202492E+03  0.11838443530E+03  0.50000000000E+03  0.47000000000E+01 0. -1.
         -5    1    1    2    0  501  0.40152870872E+03 -0.27338202492E+03 -0.11838443530E+03  0.50000000000E+03  0.47000000000E+01 0.  1.
</event>
<event>
 4    1  0.4903958E-004  0.1000000E+04  0.7546771E-02  0.8684367E-01
         11   -1    0    0    0    0  0.00000000000E+00  0.00000000000E+00  0.50000000000E+03  0.50000000000E+03  0.00000000000E+00 0. -1.
        -11   -1    0    0    0    0 -0.00000000000E+00 -0.00000000000E+00 -0.50000000000E+03  0.50000000000E+03  0.00000000000E+00 0.  1.
          5    1    1    2  501    0 -0.39000586363E+03  0.12832141980E+03 -0.28531903118E+03  0.50000000000E+03  0.47000000000E+01 0. -1.
         -5    1    1    2    0  501  0.39000586363E+03 -0.12832141980E+03  0.28531903118E+03  0.50000000000E+03  0.47000000000E+01 0.  1.
</event>
<event>
 4    1  0.4903958E-004  0.1000000E+04  0.7546771E-02  0.8684367E-01
         11   -1    0    0    0    0  0.00000000000E+00  0.00000000000E+00  0.50000000000E+03  0.50000000000E+03  0.00000000000E+00 0. -1.
        -11   -1    0    0    0    0 -0.00000000000E+00 -0.00000000000E+00 -0.50000000000E+03  0.50000000000E+03  0.00000000000E+00 0.  1.
          5    1    1    2  501    0 -0.24875507565E+03 -0.37079110797E+02  0.43211568114E+03  0.50000000000E+03  0.47000000000E+01 0. -1.
         -5    1    1    2    0  501  0.24875507565E+03  0.37079110797E+02 -0.43211568114E+03  0.50000000000E+03  0.47000000000E+01 0.  1.
</event>
<event>
 4    1  0.4903958E-004  0.1000000E+04  0.7546771E-02  0.8684367E-01
         11   -1    0    0    0    0  0.00000000000E+00  0.00000000000E+00  0.50000000000E+03  0.50000000000E+03  0.00000000000E+00 0. -1.
        -11   -1    0    0    0    0 -0.00000000000E+00 -0.00000000000E+00 -0.50000000000E+03  0.50000000000E+03  0.00000000000E+00 0.  1.
          5    1    1    2  501    0 -0.24860432626E+03  0.39764682743E+03 -0.17335166454E+03  0.50000000000E+03  0.47000000000E+01 0. -1.
         -5    1    1    2    0  501  0.24860432626E+03 -0.39764682743E+03  0.17335166454E+03  0.50000000000E+03  0.47000000000E+01 0.  1.
</event>
<event>
 4    1  0.4903958E-004  0.1000000E+04  0.7546771E-02  0.8684367E-01
         11   -1    0    0    0    0  0.00000000000E+00  0.00000000000E+00  0.50000000000E+03  0.50000000000E+03  0.00000000000E+00 0. -1.
        -11   -1    0    0    0    0 -0.00000000000E+00 -0.00000000000E+00 -0.50000000000E+03  0.50000000000E+03  0.00000000000E+00 0.  1.
          5    1    1    2  501    0  0.10763240962E+03  0.48237907553E+03  0.75522194691E+02  0.50000000000E+03  0.47000000000E+01 0. -1.
         -5    1    1    2    0  501 -0.10763240962E+03 -0.48237907553E+03 -0.75522194691E+02  0.50000000000E+03  0.47000000000E+01 0.  1.
</event>
<event>
 4    1  0.4903958E-004  0.1000000E+04  0.7546771E-02  0.8684367E-01
         11   -1    0    0    0    0  0.00000000000E+00  0.00000000000E+00  0.50000000000E+03  0.50000000000E+03  0.00000000000E+00 0. -1.
        -11   -1    0    0    0    0 -0.00000000000E+00 -0.00000000000E+00 -0.50000000000E+03  0.50000000000E+03  0.00000000000E+00 0.  1.
          5    1    1    2  501    0  0.62163947961E+02  0.19069835552E+03  0.45798219482E+03  0.50000000000E+03  0.47000000000E+01 0. -1.
         -5    1    1    2    0  501 -0.62163947961E+02 -0.19069835552E+03 -0.45798219482E+03  0.50000000000E+03  0.47000000000E+01 0.  1.
</event>
<event>
 4    1  0.4903958E-004  0.1000000E+04  0.7546771E-02  0.8684367E-01
         11   -1    0    0    0    0  0.00000000000E+00  0.00000000000E+00  0.50000000000E+03  0.50000000000E+03  0.00000000000E+00 0. -1.
        -11   -1    0    0    0    0 -0.00000000000E+00 -0.00000000000E+00 -0.50000000000E+03  0.50000000000E+03  0.00000000000E+00 0.  1.
          5    1    1    2  501    0 -0.22460322907E+03 -0.29553411013E+03  0.33494908456E+03  0.50000000000E+03  0.47000000000E+01 0. -1.
         -5    1    1    2    0  501  0.22460322907E+03  0.29553411013E+03 -0.33494908456E+03  0.50000000000E+03  0.47000000000E+01 0.  1.
</event>
<event>
 4    1  0.4903958E-004  0.1000000E+04  0.7546771E-02  0.8684367E-01
         11   -1    0    0    0    0  0.00000000000E+00  0.00000000000E+00  0.50000000000E+03  0.50000000000E+03  0.00000000000E+00 0. -1.
        -11   -1    0    0    0    0 -0.00000000000E+00 -0.00000000000E+00 -0.50000000000E+03  0.50000000000E+03  0.00000000000E+00 0.  1.
          5    1    1    2  501    0 -0.25466229016E+03 -0.19633068088E+02  0.42981341372E+03  0.50000000000E+03  0.47000000000E+01 0. -1.
         -5    1    1    2    0  501  0.25466229016E+03  0.19633068088E+02 -0.42981341372E+03  0.50000000000E+03  0.47000000000E+01 0.  1.
</event>
<event>
 4    1  0.4903958E-004  0.1000000E+04  0.7546771E-02  0.8684367E-01
         11   -1    0    0    0    0  0.00000000000E+00  0.00000000000E+00  0.50000000000E+03  0.50000000000E+03  0.00000000000E+00 0. -1.
        -11   -1    0    0    0    0 -0.00000000000E+00 -0.00000000000E+00 -0.50000000000E+03  0.50000000000E+03  0.00000000000E+00 0.  1.
          5    1    1    2  501    0  0.35146397985E+03  0.17489684269E+03  0.30961601264E+03  0.50000000000E+03  0.47000000000E+01 0. -1.
         -5    1    1    2    0  501 -0.35146397985E+03 -0.17489684269E+03 -0.30961601264E+03  0.50000000000E+03  0.47000000000E+01 0.  1.
</event>
<event>
 4    1  0.4903958E-004  0.1000000E+04  0.7546771E-02  0.8684367E-01
         11   -1    0    0    0    0  0.00000000000E+00  0.00000000000E+00  0.50000000000E+03  0.50000000000E+03  0.00000000000E+00 0. -1.
        -11   -1    0    0    0    0 -0.00000000000E+00 -0.00000000000E+00 -0.50000000000E+03  0.50000000000E+03  0.00000000000E+00 0.  1.
          5    1    1    2  501    0  0.33111935609E+03  0.37451112152E+03 -0.89051602918E+01  0.50000000000E+03  0.47000000000E+01 0. -1.
         -5    1    1    2    0  501 -0.33111935609E+03 -0.37451112152E+03  0.89051602918E+01  0.50000000000E+03  0.47000000000E+01 0.  1.
</event>
<event>
 4    1  0.4903958E-004  0.1000000E+04  0.7546771E-02  0.8684367E-01
         11   -1    0    0    0    0  0.00000000000E+00  0.00000000000E+00  0.50000000000E+03  0.50000000000E+03  0.00000000000E+00 0. -1.
        -11   -1    0    0    0    0 -0.00000000000E+00 -0.00000000000E+00 -0.50000000000E+03  0.50000000000E+03  0.00000000000E+00 0.  1.
          5    1    1    2  501    0  0.36310330960E+03 -0.30848235424E+03  0.15156692807E+03  0.50000000000E+03  0.47000000000E+01 0. -1.
         -5    1    1    2    0  501 -0.36310330960E+03  0.30848235424E+03 -0.15156692807E+03  0.50000000000E+03  0.47000000000E+01 0.  1.
</event>
<event>
 4    1  0.4903958E-004  0.1000000E+04  0.7546771E-02  0.8684367E-01
         11   -1    0    0    0    0  0.00000000000E+00  0.00000000000E+00  0.50000000000E+03  0.50000000000E+03  0.00000000000E+00 0. -1.
        -11   -1    0    0    0    0 -0.00000000000E+00 -0.00000000000E+00 -0.50000000000E+03  0.50000000000E+03  0.00000000000E+00 0.  1.
          5    1    1    2  501    0 -0.28241613534E+03  0.33056096278E+03  0.24687747241E+03  0.50000000000E+03  0.47000000000E+01 0. -1.
         -5    1    1    2    0  501  0.28241613534E+03 -0.33056096278E+03 -0.24687747241E+03  0.50000000000E+03  0.47000000000E+01 0.  1.
</event>
<event>
 4    1  0.4903958E-004  0.1000000E+04  0.7546771E-02  0.8684367E-01
         11   -1    0    0    0    0  0.00000000000E+00  0.00000000000E+00  0.50000000000E+03  0.50000000000E+03  0.00000000000E+00 0. -1.
        -11   -1    0    0    0    0 -0.00000000000E+00 -0.00000000000E+00 -0.50000000000E+03  0.50000000000E+03  0.00000000000E+00 0.  1.
          5    1    1    2  501    0  0.26582291950E+03 -0.14179441891E+03  0.39901181465E+03  0.50000000000E+03  0.47000000000E+01 0. -1.
         -5    1    1    2    0  501 -0.26582291950E+03  0.14179441891E+03 -0.39901181465E+03  0.50000000000E+03  0.47000000000E+01 0.  1.
</event>
<event>
 4    1  0.4903958E-004  0.1000000E+04  0.7546771E-02  0.8684367E-01
         11   -1    0    0    0    0  0.00000000000E+00  0.00000000000E+00  0.50000000000E+03  0.50000000000E+03  0.00000000000E+00 0. -1.
        -11   -1    0    0    0    0 -0.00000000000E+00 -0.00000000000E+00 -0.50000000000E+03  0.50000000000E+03  0.00000000000E+00 0.  1.
          5    1    1    2  501    0 -0.23549729119E+01 -0.99197682841E+01  0.49987394641E+03  0.50000000000E+03  0.47000000000E+01 0. -1.
         -5    1    1    2    0  501  0.23549729119E+01  0.99197682841E+01 -0.49987394641E+03  0.50000000000E+03  0.47000000000E+01 0.  1.
</event>
<event>
 4    1  0.4903958E-004  0.1000000E+04  0.7546771E-02  0.8684367E-01
         11   -1    0    0    0    0  0.00000000000E+00  0.00000000000E+00  0.50000000000E+03  0.50000000000E+03  0.00000000000E+00 0. -1.
        -11   -1    0    0    0    0 -0.00000000000E+00 -0.00000000000E+00 -0.50000000000E+03  0.50000000000E+03  0.00000000000E+00 0.  1.
          5    1    1    2  501    0 -0.47792138020E+01  0.19107708140E+03  0.46200066891E+03  0.50000000000E+03  0.47000000000E+01 0. -1.
         -5    1    1    2    0  501  0.47792138020E+01 -0.19107708140E+03 -0.46200066891E+03  0.50000000000E+03  0.47000000000E+01 0.  1.
</event>
<event>
 4    1  0.4903958E-004  0.1000000E+04  0.7546771E-02  0.8684367E-01
         11   -1    0    0    0    0  0.00000000000E+00  0.00000000000E+00  0.50000000000E+03  0.50000000000E+03  0.00000000000E+00 0. -1.
        -11   -1    0    0    0    0 -0.00000000000E+00 -0.00000000000E+00 -0.50000000000E+03  0.50000000000E+03  0.00000000000E+00 0.  1.
          5    1    1    2  501    0  0.47384033256E+03  0.58837824364E+02  0.14829484030E+03  0.50000000000E+03  0.47000000000E+01 0. -1.
         -5    1    1    2    0  501 -0.47384033256E+03 -0.58837824364E+02 -0.14829484030E+03  0.50000000000E+03  0.47000000000E+01 0.  1.
</event>
<event>
 4    1  0.4903958E-004  0.1000000E+04  0.7546771E-02  0.8684367E-01
         11   -1    0    0    0    0  0.00000000000E+00  0.00000000000E+00  0.50000000000E+03  0.50000000000E+03  0.00000000000E+00 0. -1.
        -11   -1    0    0    0    0 -0.00000000000E+00 -0.00000000000E+00 -0.50000000000E+03  0.50000000000E+03  0.00000000000E+00 0.  1.
          5    1    1    2  501    0  0.17268009697E+03  0.23107361908E+03  0.40836806520E+03  0.50000000000E+03  0.47000000000E+01 0. -1.
         -5    1    1    2    0  501 -0.17268009697E+03 -0.23107361908E+03 -0.40836806520E+03  0.50000000000E+03  0.47000000000E+01 0.  1.
</event>
<event>
 4    1  0.4903958E-004  0.1000000E+04  0.7546771E-02  0.8684367E-01
         11   -1    0    0    0    0  0.00000000000E+00  0.00000000000E+00  0.50000000000E+03  0.50000000000E+03  0.00000000000E+00 0. -1.
        -11   -1    0    0    0    0 -0.00000000000E+00 -0.00000000000E+00 -0.50000000000E+03  0.50000000000E+03  0.00000000000E+00 0.  1.
          5    1    1    2  501    0  0.19054808075E+03 -0.26049940702E+03 -0.38184996774E+03  0.50000000000E+03  0.47000000000E+01 0. -1.
         -5    1    1    2    0  501 -0.19054808075E+03  0.26049940702E+03  0.38184996774E+03  0.50000000000E+03  0.47000000000E+01 0.  1.
</event>
<event>
 4    1  0.4903958E-004  0.1000000E+04  0.7546771E-02  0.8684367E-01
         11   -1    0    0    0    0  0.00000000000E+00  0.00000000000E+00  0.50000000000E+03  0.50000000000E+03  0.00000000000E+00 0. -1.
        -11   -1    0    0    0    0 -0.00000000000E+00 -0.00000000000E+00 -0.50000000000E+03  0.50000000000E+03  0.00000000000E+00 0.  1.
          5    1    1    2  501    0 -0.23079362436E+02  0.19008813324E+03  0.46185685513E+03  0.50000000000E+03  0.47000000000E+01 0. -1.
         -5    1    1    2    0  501  0.23079362436E+02 -0.19008813324E+03 -0.46185685513E+03  0.50000000000E+03  0.47000000000E+01 0.  1.
</event>
<event>
 4    1  0.4903958E-004  0.1000000E+04  0.7546771E-02  0.8684367E-01
         11   -1    0    0    0    0  0.00000000000E+00  0.00000000000E+00  0.50000000000E+03  0.50000000000E+03  0.00000000000E+00 0. -1.
        -11   -1    0    0    0    0 -0.00000000000E+00 -0.00000000000E+00 -0.50000000000E+03  0.50000000000E+03  0.00000000000E+00 0.  1.
          5    1    1    2  501    0 -0.32073537499E+03  0.32079992889E+03 -0.21022401112E+03  0.50000000000E+03  0.47000000000E+01 0. -1.
         -5    1    1    2    0  501  0.32073537499E+03 -0.32079992889E+03  0.21022401112E+03  0.50000000000E+03  0.47000000000E+01 0.  1.
</event>
<event>
 4    1  0.4903958E-004  0.1000000E+04  0.7546771E-02  0.8684367E-01
         11   -1    0    0    0    0  0.00000000000E+00  0.00000000000E+00  0.50000000000E+03  0.50000000000E+03  0.00000000000E+00 0.  1.
        -11   -1    0    0    0    0 -0.00000000000E+00 -0.00000000000E+00 -0.50000000000E+03  0.50000000000E+03  0.00000000000E+00 0. -1.
          5    1    1    2  501    0  0.24566761129E+03 -0.22611125112E+03  0.37215458734E+03  0.50000000000E+03  0.47000000000E+01 0.  1.
         -5    1    1    2    0  501 -0.24566761129E+03  0.22611125112E+03 -0.37215458734E+03  0.50000000000E+03  0.47000000000E+01 0. -1.
</event>
<event>
 4    1  0.4903958E-004  0.1000000E+04  0.7546771E-02  0.8684367E-01
         11   -1    0    0    0    0  0.00000000000E+00  0.00000000000E+00  0.50000000000E+03  0.50000000000E+03  0.00000000000E+00 0.  1.
        -11   -1    0    0    0    0 -0.00000000000E+00 -0.00000000000E+00 -0.50000000000E+03  0.50000000000E+03  0.00000000000E+00 0. -1.
          5    1    1    2  501    0 -0.41820645988E+03 -0.26820777422E+03  0.56087937743E+02  0.50000000000E+03  0.47000000000E+01 0.  1.
         -5    1    1    2    0  501  0.41820645988E+03  0.26820777422E+03 -0.56087937743E+02  0.50000000000E+03  0.47000000000E+01 0. -1.
</event>
<event>
 4    1  0.4903958E-004  0.1000000E+04  0.7546771E-02  0.8684367E-01
         11   -1    0    0    0    0  0.00000000000E+00  0.00000000000E+00  0.50000000000E+03  0.50000000000E+03  0.00000000000E+00 0. -1.
        -11   -1    0    0    0    0 -0.00000000000E+00 -0.00000000000E+00 -0.50000000000E+03  0.50000000000E+03  0.00000000000E+00 0.  1.
          5    1    1    2  501    0  0.10756142598E+03 -0.27646772534E+03  0.40245999364E+03  0.50000000000E+03  0.47000000000E+01 0. -1.
         -5    1    1    2    0  501 -0.10756142598E+03  0.27646772534E+03 -0.40245999364E+03  0.50000000000E+03  0.47000000000E+01 0.  1.
</event>
<event>
 4    1  0.4903958E-004  0.1000000E+04  0.7546771E-02  0.8684367E-01
         11   -1    0    0    0    0  0.00000000000E+00  0.00000000000E+00  0.50000000000E+03  0.50000000000E+03  0.00000000000E+00 0. -1.
        -11   -1    0    0    0    0 -0.00000000000E+00 -0.00000000000E+00 -0.50000000000E+03  0.50000000000E+03  0.00000000000E+00 0.  1.
          5    1    1    2  501    0  0.78056465314E+01 -0.15601752580E+03  0.47494790612E+03  0.50000000000E+03  0.47000000000E+01 0. -1.
         -5    1    1    2    0  501 -0.78056465314E+01  0.15601752580E+03 -0.47494790612E+03  0.50000000000E+03  0.47000000000E+01 0.  1.
</event>
<event>
 4    1  0.4903958E-004  0.1000000E+04  0.7546771E-02  0.8684367E-01
         11   -1    0    0    0    0  0.00000000000E+00  0.00000000000E+00  0.50000000000E+03  0.50000000000E+03  0.00000000000E+00 0. -1.
        -11   -1    0    0    0    0 -0.00000000000E+00 -0.00000000000E+00 -0.50000000000E+03  0.50000000000E+03  0.00000000000E+00 0.  1.
          5    1    1    2  501    0 -0.44576941421E+03 -0.21013096548E+03  0.84335737997E+02  0.50000000000E+03  0.47000000000E+01 0. -1.
         -5    1    1    2    0  501  0.44576941421E+03  0.21013096548E+03 -0.84335737997E+02  0.50000000000E+03  0.47000000000E+01 0.  1.
</event>
<event>
 4    1  0.4903958E-004  0.1000000E+04  0.7546771E-02  0.8684367E-01
         11   -1    0    0    0    0  0.00000000000E+00  0.00000000000E+00  0.50000000000E+03  0.50000000000E+03  0.00000000000E+00 0. -1.
        -11   -1    0    0    0    0 -0.00000000000E+00 -0.00000000000E+00 -0.50000000000E+03  0.50000000000E+03  0.00000000000E+00 0.  1.
          5    1    1    2  501    0  0.35367327532E+03  0.38843558408E+02  0.35126101733E+03  0.50000000000E+03  0.47000000000E+01 0. -1.
         -5    1    1    2    0  501 -0.35367327532E+03 -0.38843558408E+02 -0.35126101733E+03  0.50000000000E+03  0.47000000000E+01 0.  1.
</event>
<event>
 4    1  0.4903958E-004  0.1000000E+04  0.7546771E-02  0.8684367E-01
         11   -1    0    0    0    0  0.00000000000E+00  0.00000000000E+00  0.50000000000E+03  0.50000000000E+03  0.00000000000E+00 0. -1.
        -11   -1    0    0    0    0 -0.00000000000E+00 -0.00000000000E+00 -0.50000000000E+03  0.50000000000E+03  0.00000000000E+00 0.  1.
          5    1    1    2  501    0 -0.20153153644E+03  0.95828099787E+02  0.44741471267E+03  0.50000000000E+03  0.47000000000E+01 0. -1.
         -5    1    1    2    0  501  0.20153153644E+03 -0.95828099787E+02 -0.44741471267E+03  0.50000000000E+03  0.47000000000E+01 0.  1.
</event>
<event>
 4    1  0.4903958E-004  0.1000000E+04  0.7546771E-02  0.8684367E-01
         11   -1    0    0    0    0  0.00000000000E+00  0.00000000000E+00  0.50000000000E+03  0.50000000000E+03  0.00000000000E+00 0. -1.
        -11   -1    0    0    0    0 -0.00000000000E+00 -0.00000000000E+00 -0.50000000000E+03  0.50000000000E+03  0.00000000000E+00 0.  1.
          5    1    1    2  501    0 -0.49337434686E+03 -0.48905392367E+01 -0.80843963827E+02  0.50000000000E+03  0.47000000000E+01 0. -1.
         -5    1    1    2    0  501  0.49337434686E+03  0.48905392367E+01  0.80843963827E+02  0.50000000000E+03  0.47000000000E+01 0.  1.
</event>
<event>
 4    1  0.4903958E-004  0.1000000E+04  0.7546771E-02  0.8684367E-01
         11   -1    0    0    0    0  0.00000000000E+00  0.00000000000E+00  0.50000000000E+03  0.50000000000E+03  0.00000000000E+00 0. -1.
        -11   -1    0    0    0    0 -0.00000000000E+00 -0.00000000000E+00 -0.50000000000E+03  0.50000000000E+03  0.00000000000E+00 0.  1.
          5    1    1    2  501    0  0.20059363437E+03  0.45310345818E+03  0.66613512426E+02  0.50000000000E+03  0.47000000000E+01 0. -1.
         -5    1    1    2    0  501 -0.20059363437E+03 -0.45310345818E+03 -0.66613512426E+02  0.50000000000E+03  0.47000000000E+01 0.  1.
</event>
<event>
 4    1  0.4903958E-004  0.1000000E+04  0.7546771E-02  0.8684367E-01
         11   -1    0    0    0    0  0.00000000000E+00  0.00000000000E+00  0.50000000000E+03  0.50000000000E+03  0.00000000000E+00 0. -1.
        -11   -1    0    0    0    0 -0.00000000000E+00 -0.00000000000E+00 -0.50000000000E+03  0.50000000000E+03  0.00000000000E+00 0.  1.
          5    1    1    2  501    0 -0.15898409817E+02  0.27826180517E+03  0.41508495317E+03  0.50000000000E+03  0.47000000000E+01 0. -1.
         -5    1    1    2    0  501  0.15898409817E+02 -0.27826180517E+03 -0.41508495317E+03  0.50000000000E+03  0.47000000000E+01 0.  1.
</event>
<event>
 4    1  0.4903958E-004  0.1000000E+04  0.7546771E-02  0.8684367E-01
         11   -1    0    0    0    0  0.00000000000E+00  0.00000000000E+00  0.50000000000E+03  0.50000000000E+03  0.00000000000E+00 0. -1.
        -11   -1    0    0    0    0 -0.00000000000E+00 -0.00000000000E+00 -0.50000000000E+03  0.50000000000E+03  0.00000000000E+00 0.  1.
          5    1    1    2  501    0 -0.52837083120E+02 -0.49191271063E+03  0.72166735872E+02  0.50000000000E+03  0.47000000000E+01 0. -1.
         -5    1    1    2    0  501  0.52837083120E+02  0.49191271063E+03 -0.72166735872E+02  0.50000000000E+03  0.47000000000E+01 0.  1.
</event>
<event>
 4    1  0.4903958E-004  0.1000000E+04  0.7546771E-02  0.8684367E-01
         11   -1    0    0    0    0  0.00000000000E+00  0.00000000000E+00  0.50000000000E+03  0.50000000000E+03  0.00000000000E+00 0.  1.
        -11   -1    0    0    0    0 -0.00000000000E+00 -0.00000000000E+00 -0.50000000000E+03  0.50000000000E+03  0.00000000000E+00 0. -1.
          5    1    1    2  501    0 -0.44212218603E+03  0.55550787354E+02 -0.22675976858E+03  0.50000000000E+03  0.47000000000E+01 0. -1.
         -5    1    1    2    0  501  0.44212218603E+03 -0.55550787354E+02  0.22675976858E+03  0.50000000000E+03  0.47000000000E+01 0.  1.
</event>
<event>
 4    1  0.4903958E-004  0.1000000E+04  0.7546771E-02  0.8684367E-01
         11   -1    0    0    0    0  0.00000000000E+00  0.00000000000E+00  0.50000000000E+03  0.50000000000E+03  0.00000000000E+00 0. -1.
        -11   -1    0    0    0    0 -0.00000000000E+00 -0.00000000000E+00 -0.50000000000E+03  0.50000000000E+03  0.00000000000E+00 0.  1.
          5    1    1    2  501    0  0.27843349702E+03 -0.37301413548E+03  0.18251890988E+03  0.50000000000E+03  0.47000000000E+01 0. -1.
         -5    1    1    2    0  501 -0.27843349702E+03  0.37301413548E+03 -0.18251890988E+03  0.50000000000E+03  0.47000000000E+01 0.  1.
</event>
<event>
 4    1  0.4903958E-004  0.1000000E+04  0.7546771E-02  0.8684367E-01
         11   -1    0    0    0    0  0.00000000000E+00  0.00000000000E+00  0.50000000000E+03  0.50000000000E+03  0.00000000000E+00 0. -1.
        -11   -1    0    0    0    0 -0.00000000000E+00 -0.00000000000E+00 -0.50000000000E+03  0.50000000000E+03  0.00000000000E+00 0.  1.
          5    1    1    2  501    0 -0.32856502017E+03  0.91303739758E+02  0.36563173362E+03  0.50000000000E+03  0.47000000000E+01 0. -1.
         -5    1    1    2    0  501  0.32856502017E+03 -0.91303739758E+02 -0.36563173362E+03  0.50000000000E+03  0.47000000000E+01 0.  1.
</event>
<event>
 4    1  0.4903958E-004  0.1000000E+04  0.7546771E-02  0.8684367E-01
         11   -1    0    0    0    0  0.00000000000E+00  0.00000000000E+00  0.50000000000E+03  0.50000000000E+03  0.00000000000E+00 0. -1.
        -11   -1    0    0    0    0 -0.00000000000E+00 -0.00000000000E+00 -0.50000000000E+03  0.50000000000E+03  0.00000000000E+00 0.  1.
          5    1    1    2  501    0  0.11660847713E+03 -0.43835412811E+03  0.21029986075E+03  0.50000000000E+03  0.47000000000E+01 0. -1.
         -5    1    1    2    0  501 -0.11660847713E+03  0.43835412811E+03 -0.21029986075E+03  0.50000000000E+03  0.47000000000E+01 0.  1.
</event>
<event>
 4    1  0.4903958E-004  0.1000000E+04  0.7546771E-02  0.8684367E-01
         11   -1    0    0    0    0  0.00000000000E+00  0.00000000000E+00  0.50000000000E+03  0.50000000000E+03  0.00000000000E+00 0. -1.
        -11   -1    0    0    0    0 -0.00000000000E+00 -0.00000000000E+00 -0.50000000000E+03  0.50000000000E+03  0.00000000000E+00 0.  1.
          5    1    1    2  501    0  0.45230996869E+03 -0.11199347495E+03 -0.18124862424E+03  0.50000000000E+03  0.47000000000E+01 0. -1.
         -5    1    1    2    0  501 -0.45230996869E+03  0.11199347495E+03  0.18124862424E+03  0.50000000000E+03  0.47000000000E+01 0.  1.
</event>
<event>
 4    1  0.4903958E-004  0.1000000E+04  0.7546771E-02  0.8684367E-01
         11   -1    0    0    0    0  0.00000000000E+00  0.00000000000E+00  0.50000000000E+03  0.50000000000E+03  0.00000000000E+00 0.  1.
        -11   -1    0    0    0    0 -0.00000000000E+00 -0.00000000000E+00 -0.50000000000E+03  0.50000000000E+03  0.00000000000E+00 0. -1.
          5    1    1    2  501    0  0.13113740467E+03 -0.45697072850E+03  0.15478580165E+03  0.50000000000E+03  0.47000000000E+01 0.  1.
         -5    1    1    2    0  501 -0.13113740467E+03  0.45697072850E+03 -0.15478580165E+03  0.50000000000E+03  0.47000000000E+01 0. -1.
</event>
<event>
 4    1  0.4903958E-004  0.1000000E+04  0.7546771E-02  0.8684367E-01
         11   -1    0    0    0    0  0.00000000000E+00  0.00000000000E+00  0.50000000000E+03  0.50000000000E+03  0.00000000000E+00 0. -1.
        -11   -1    0    0    0    0 -0.00000000000E+00 -0.00000000000E+00 -0.50000000000E+03  0.50000000000E+03  0.00000000000E+00 0.  1.
          5    1    1    2  501    0 -0.63610335310E+02  0.48152810685E+03  0.11858464299E+03  0.50000000000E+03  0.47000000000E+01 0. -1.
         -5    1    1    2    0  501  0.63610335310E+02 -0.48152810685E+03 -0.11858464299E+03  0.50000000000E+03  0.47000000000E+01 0.  1.
</event>
<event>
 4    1  0.4903958E-004  0.1000000E+04  0.7546771E-02  0.8684367E-01
         11   -1    0    0    0    0  0.00000000000E+00  0.00000000000E+00  0.50000000000E+03  0.50000000000E+03  0.00000000000E+00 0. -1.
        -11   -1    0    0    0    0 -0.00000000000E+00 -0.00000000000E+00 -0.50000000000E+03  0.50000000000E+03  0.00000000000E+00 0.  1.
          5    1    1    2  501    0 -0.70369123214E+01 -0.48379704904E+03  0.12597145392E+03  0.50000000000E+03  0.47000000000E+01 0. -1.
         -5    1    1    2    0  501  0.70369123214E+01  0.48379704904E+03 -0.12597145392E+03  0.50000000000E+03  0.47000000000E+01 0.  1.
</event>
<event>
 4    1  0.4903958E-004  0.1000000E+04  0.7546771E-02  0.8684367E-01
         11   -1    0    0    0    0  0.00000000000E+00  0.00000000000E+00  0.50000000000E+03  0.50000000000E+03  0.00000000000E+00 0. -1.
        -11   -1    0    0    0    0 -0.00000000000E+00 -0.00000000000E+00 -0.50000000000E+03  0.50000000000E+03  0.00000000000E+00 0.  1.
          5    1    1    2  501    0  0.38898813448E+03 -0.18134355166E+03  0.25647740155E+03  0.50000000000E+03  0.47000000000E+01 0. -1.
         -5    1    1    2    0  501 -0.38898813448E+03  0.18134355166E+03 -0.25647740155E+03  0.50000000000E+03  0.47000000000E+01 0.  1.
</event>
<event>
 4    1  0.4903958E-004  0.1000000E+04  0.7546771E-02  0.8684367E-01
         11   -1    0    0    0    0  0.00000000000E+00  0.00000000000E+00  0.50000000000E+03  0.50000000000E+03  0.00000000000E+00 0. -1.
        -11   -1    0    0    0    0 -0.00000000000E+00 -0.00000000000E+00 -0.50000000000E+03  0.50000000000E+03  0.00000000000E+00 0.  1.
          5    1    1    2  501    0 -0.21075862037E+03  0.40073768823E+03  0.21205664143E+03  0.50000000000E+03  0.47000000000E+01 0. -1.
         -5    1    1    2    0  501  0.21075862037E+03 -0.40073768823E+03 -0.21205664143E+03  0.50000000000E+03  0.47000000000E+01 0.  1.
</event>
<event>
 4    1  0.4903958E-004  0.1000000E+04  0.7546771E-02  0.8684367E-01
         11   -1    0    0    0    0  0.00000000000E+00  0.00000000000E+00  0.50000000000E+03  0.50000000000E+03  0.00000000000E+00 0. -1.
        -11   -1    0    0    0    0 -0.00000000000E+00 -0.00000000000E+00 -0.50000000000E+03  0.50000000000E+03  0.00000000000E+00 0.  1.
          5    1    1    2  501    0  0.40259289268E+03 -0.19394796762E+03  0.22423438322E+03  0.50000000000E+03  0.47000000000E+01 0. -1.
         -5    1    1    2    0  501 -0.40259289268E+03  0.19394796762E+03 -0.22423438322E+03  0.50000000000E+03  0.47000000000E+01 0.  1.
</event>
<event>
 4    1  0.4903958E-004  0.1000000E+04  0.7546771E-02  0.8684367E-01
         11   -1    0    0    0    0  0.00000000000E+00  0.00000000000E+00  0.50000000000E+03  0.50000000000E+03  0.00000000000E+00 0. -1.
        -11   -1    0    0    0    0 -0.00000000000E+00 -0.00000000000E+00 -0.50000000000E+03  0.50000000000E+03  0.00000000000E+00 0.  1.
          5    1    1    2  501    0 -0.38452587726E+03 -0.11794831812E+03  0.29699487197E+03  0.50000000000E+03  0.47000000000E+01 0. -1.
         -5    1    1    2    0  501  0.38452587726E+03  0.11794831812E+03 -0.29699487197E+03  0.50000000000E+03  0.47000000000E+01 0.  1.
</event>
<event>
 4    1  0.4903958E-004  0.1000000E+04  0.7546771E-02  0.8684367E-01
         11   -1    0    0    0    0  0.00000000000E+00  0.00000000000E+00  0.50000000000E+03  0.50000000000E+03  0.00000000000E+00 0. -1.
        -11   -1    0    0    0    0 -0.00000000000E+00 -0.00000000000E+00 -0.50000000000E+03  0.50000000000E+03  0.00000000000E+00 0.  1.
          5    1    1    2  501    0  0.44074816417E+03 -0.82561101128E+02  0.22113939125E+03  0.50000000000E+03  0.47000000000E+01 0. -1.
         -5    1    1    2    0  501 -0.44074816417E+03  0.82561101128E+02 -0.22113939125E+03  0.50000000000E+03  0.47000000000E+01 0.  1.
</event>
<event>
 4    1  0.4903958E-004  0.1000000E+04  0.7546771E-02  0.8684367E-01
         11   -1    0    0    0    0  0.00000000000E+00  0.00000000000E+00  0.50000000000E+03  0.50000000000E+03  0.00000000000E+00 0. -1.
        -11   -1    0    0    0    0 -0.00000000000E+00 -0.00000000000E+00 -0.50000000000E+03  0.50000000000E+03  0.00000000000E+00 0.  1.
          5    1    1    2  501    0  0.28777938582E+03  0.31016215122E+03  0.26638388661E+03  0.50000000000E+03  0.47000000000E+01 0. -1.
         -5    1    1    2    0  501 -0.28777938582E+03 -0.31016215122E+03 -0.26638388661E+03  0.50000000000E+03  0.47000000000E+01 0.  1.
</event>
<event>
 4    1  0.4903958E-004  0.1000000E+04  0.7546771E-02  0.8684367E-01
         11   -1    0    0    0    0  0.00000000000E+00  0.00000000000E+00  0.50000000000E+03  0.50000000000E+03  0.00000000000E+00 0. -1.
        -11   -1    0    0    0    0 -0.00000000000E+00 -0.00000000000E+00 -0.50000000000E+03  0.50000000000E+03  0.00000000000E+00 0.  1.
          5    1    1    2  501    0 -0.16356913519E+03 -0.20646197538E+03 -0.42496647013E+03  0.50000000000E+03  0.47000000000E+01 0.  1.
         -5    1    1    2    0  501  0.16356913519E+03  0.20646197538E+03  0.42496647013E+03  0.50000000000E+03  0.47000000000E+01 0. -1.
</event>
<event>
 4    1  0.4903958E-004  0.1000000E+04  0.7546771E-02  0.8684367E-01
         11   -1    0    0    0    0  0.00000000000E+00  0.00000000000E+00  0.50000000000E+03  0.50000000000E+03  0.00000000000E+00 0. -1.
        -11   -1    0    0    0    0 -0.00000000000E+00 -0.00000000000E+00 -0.50000000000E+03  0.50000000000E+03  0.00000000000E+00 0.  1.
          5    1    1    2  501    0  0.78614403511E+02  0.11474354485E+03  0.48024119406E+03  0.50000000000E+03  0.47000000000E+01 0. -1.
         -5    1    1    2    0  501 -0.78614403511E+02 -0.11474354485E+03 -0.48024119406E+03  0.50000000000E+03  0.47000000000E+01 0.  1.
</event>
<event>
 4    1  0.4903958E-004  0.1000000E+04  0.7546771E-02  0.8684367E-01
         11   -1    0    0    0    0  0.00000000000E+00  0.00000000000E+00  0.50000000000E+03  0.50000000000E+03  0.00000000000E+00 0. -1.
        -11   -1    0    0    0    0 -0.00000000000E+00 -0.00000000000E+00 -0.50000000000E+03  0.50000000000E+03  0.00000000000E+00 0.  1.
          5    1    1    2  501    0 -0.43719323332E+03  0.24046816236E+03  0.31859843627E+02  0.50000000000E+03  0.47000000000E+01 0. -1.
         -5    1    1    2    0  501  0.43719323332E+03 -0.24046816236E+03 -0.31859843627E+02  0.50000000000E+03  0.47000000000E+01 0.  1.
</event>
<event>
 4    1  0.4903958E-004  0.1000000E+04  0.7546771E-02  0.8684367E-01
         11   -1    0    0    0    0  0.00000000000E+00  0.00000000000E+00  0.50000000000E+03  0.50000000000E+03  0.00000000000E+00 0.  1.
        -11   -1    0    0    0    0 -0.00000000000E+00 -0.00000000000E+00 -0.50000000000E+03  0.50000000000E+03  0.00000000000E+00 0. -1.
          5    1    1    2  501    0  0.13366503598E+03  0.39150896951E+03 -0.28077089405E+03  0.50000000000E+03  0.47000000000E+01 0. -1.
         -5    1    1    2    0  501 -0.13366503598E+03 -0.39150896951E+03  0.28077089405E+03  0.50000000000E+03  0.47000000000E+01 0.  1.
</event>
<event>
 4    1  0.4903958E-004  0.1000000E+04  0.7546771E-02  0.8684367E-01
         11   -1    0    0    0    0  0.00000000000E+00  0.00000000000E+00  0.50000000000E+03  0.50000000000E+03  0.00000000000E+00 0. -1.
        -11   -1    0    0    0    0 -0.00000000000E+00 -0.00000000000E+00 -0.50000000000E+03  0.50000000000E+03  0.00000000000E+00 0.  1.
          5    1    1    2  501    0 -0.25300974083E+02  0.32833508009E+03  0.37620984290E+03  0.50000000000E+03  0.47000000000E+01 0. -1.
         -5    1    1    2    0  501  0.25300974083E+02 -0.32833508009E+03 -0.37620984290E+03  0.50000000000E+03  0.47000000000E+01 0.  1.
</event>
<event>
 4    1  0.4903958E-004  0.1000000E+04  0.7546771E-02  0.8684367E-01
         11   -1    0    0    0    0  0.00000000000E+00  0.00000000000E+00  0.50000000000E+03  0.50000000000E+03  0.00000000000E+00 0. -1.
        -11   -1    0    0    0    0 -0.00000000000E+00 -0.00000000000E+00 -0.50000000000E+03  0.50000000000E+03  0.00000000000E+00 0.  1.
          5    1    1    2  501    0 -0.19186948254E+03  0.28899746673E+03  0.36006176678E+03  0.50000000000E+03  0.47000000000E+01 0. -1.
         -5    1    1    2    0  501  0.19186948254E+03 -0.28899746673E+03 -0.36006176678E+03  0.50000000000E+03  0.47000000000E+01 0.  1.
</event>
<event>
 4    1  0.4903958E-004  0.1000000E+04  0.7546771E-02  0.8684367E-01
         11   -1    0    0    0    0  0.00000000000E+00  0.00000000000E+00  0.50000000000E+03  0.50000000000E+03  0.00000000000E+00 0. -1.
        -11   -1    0    0    0    0 -0.00000000000E+00 -0.00000000000E+00 -0.50000000000E+03  0.50000000000E+03  0.00000000000E+00 0.  1.
          5    1    1    2  501    0  0.82924835352E+02 -0.33221243094E+03  0.36432990875E+03  0.50000000000E+03  0.47000000000E+01 0. -1.
         -5    1    1    2    0  501 -0.82924835352E+02  0.33221243094E+03 -0.36432990875E+03  0.50000000000E+03  0.47000000000E+01 0.  1.
</event>
<event>
 4    1  0.4903958E-004  0.1000000E+04  0.7546771E-02  0.8684367E-01
         11   -1    0    0    0    0  0.00000000000E+00  0.00000000000E+00  0.50000000000E+03  0.50000000000E+03  0.00000000000E+00 0. -1.
        -11   -1    0    0    0    0 -0.00000000000E+00 -0.00000000000E+00 -0.50000000000E+03  0.50000000000E+03  0.00000000000E+00 0.  1.
          5    1    1    2  501    0  0.18444323651E+03 -0.44796944579E+03  0.12362029826E+03  0.50000000000E+03  0.47000000000E+01 0. -1.
         -5    1    1    2    0  501 -0.18444323651E+03  0.44796944579E+03 -0.12362029826E+03  0.50000000000E+03  0.47000000000E+01 0.  1.
</event>
<event>
 4    1  0.4903958E-004  0.1000000E+04  0.7546771E-02  0.8684367E-01
         11   -1    0    0    0    0  0.00000000000E+00  0.00000000000E+00  0.50000000000E+03  0.50000000000E+03  0.00000000000E+00 0. -1.
        -11   -1    0    0    0    0 -0.00000000000E+00 -0.00000000000E+00 -0.50000000000E+03  0.50000000000E+03  0.00000000000E+00 0.  1.
          5    1    1    2  501    0 -0.49585975125E+02 -0.81919484654E+01  0.49744550762E+03  0.50000000000E+03  0.47000000000E+01 0. -1.
         -5    1    1    2    0  501  0.49585975125E+02  0.81919484654E+01 -0.49744550762E+03  0.50000000000E+03  0.47000000000E+01 0.  1.
</event>
<event>
 4    1  0.4903958E-004  0.1000000E+04  0.7546771E-02  0.8684367E-01
         11   -1    0    0    0    0  0.00000000000E+00  0.00000000000E+00  0.50000000000E+03  0.50000000000E+03  0.00000000000E+00 0. -1.
        -11   -1    0    0    0    0 -0.00000000000E+00 -0.00000000000E+00 -0.50000000000E+03  0.50000000000E+03  0.00000000000E+00 0.  1.
          5    1    1    2  501    0 -0.29228852201E+03  0.28685553187E+03  0.28680870582E+03  0.50000000000E+03  0.47000000000E+01 0. -1.
         -5    1    1    2    0  501  0.29228852201E+03 -0.28685553187E+03 -0.28680870582E+03  0.50000000000E+03  0.47000000000E+01 0.  1.
</event>
<event>
 4    1  0.4903958E-004  0.1000000E+04  0.7546771E-02  0.8684367E-01
         11   -1    0    0    0    0  0.00000000000E+00  0.00000000000E+00  0.50000000000E+03  0.50000000000E+03  0.00000000000E+00 0. -1.
        -11   -1    0    0    0    0 -0.00000000000E+00 -0.00000000000E+00 -0.50000000000E+03  0.50000000000E+03  0.00000000000E+00 0.  1.
          5    1    1    2  501    0  0.18409070142E+03  0.15988091364E+03  0.43649354761E+03  0.50000000000E+03  0.47000000000E+01 0. -1.
         -5    1    1    2    0  501 -0.18409070142E+03 -0.15988091364E+03 -0.43649354761E+03  0.50000000000E+03  0.47000000000E+01 0.  1.
</event>
<event>
 4    1  0.4903958E-004  0.1000000E+04  0.7546771E-02  0.8684367E-01
         11   -1    0    0    0    0  0.00000000000E+00  0.00000000000E+00  0.50000000000E+03  0.50000000000E+03  0.00000000000E+00 0. -1.
        -11   -1    0    0    0    0 -0.00000000000E+00 -0.00000000000E+00 -0.50000000000E+03  0.50000000000E+03  0.00000000000E+00 0.  1.
          5    1    1    2  501    0  0.23761429991E+03  0.26720580507E+03  0.34945444942E+03  0.50000000000E+03  0.47000000000E+01 0. -1.
         -5    1    1    2    0  501 -0.23761429991E+03 -0.26720580507E+03 -0.34945444942E+03  0.50000000000E+03  0.47000000000E+01 0.  1.
</event>
<event>
 4    1  0.4903958E-004  0.1000000E+04  0.7546771E-02  0.8684367E-01
         11   -1    0    0    0    0  0.00000000000E+00  0.00000000000E+00  0.50000000000E+03  0.50000000000E+03  0.00000000000E+00 0. -1.
        -11   -1    0    0    0    0 -0.00000000000E+00 -0.00000000000E+00 -0.50000000000E+03  0.50000000000E+03  0.00000000000E+00 0.  1.
          5    1    1    2  501    0 -0.37259795166E+02 -0.45435972965E+03  0.20529698911E+03  0.50000000000E+03  0.47000000000E+01 0. -1.
         -5    1    1    2    0  501  0.37259795166E+02  0.45435972965E+03 -0.20529698911E+03  0.50000000000E+03  0.47000000000E+01 0.  1.
</event>
<event>
 4    1  0.4903958E-004  0.1000000E+04  0.7546771E-02  0.8684367E-01
         11   -1    0    0    0    0  0.00000000000E+00  0.00000000000E+00  0.50000000000E+03  0.50000000000E+03  0.00000000000E+00 0. -1.
        -11   -1    0    0    0    0 -0.00000000000E+00 -0.00000000000E+00 -0.50000000000E+03  0.50000000000E+03  0.00000000000E+00 0.  1.
          5    1    1    2  501    0  0.18381132985E+03 -0.46493408742E+03 -0.52535106880E+01  0.50000000000E+03  0.47000000000E+01 0. -1.
         -5    1    1    2    0  501 -0.18381132985E+03  0.46493408742E+03  0.52535106880E+01  0.50000000000E+03  0.47000000000E+01 0.  1.
</event>
<event>
 4    1  0.4903958E-004  0.1000000E+04  0.7546771E-02  0.8684367E-01
         11   -1    0    0    0    0  0.00000000000E+00  0.00000000000E+00  0.50000000000E+03  0.50000000000E+03  0.00000000000E+00 0. -1.
        -11   -1    0    0    0    0 -0.00000000000E+00 -0.00000000000E+00 -0.50000000000E+03  0.50000000000E+03  0.00000000000E+00 0.  1.
          5    1    1    2  501    0  0.16277276136E+03  0.47122753048E+03  0.37782968075E+02  0.50000000000E+03  0.47000000000E+01 0. -1.
         -5    1    1    2    0  501 -0.16277276136E+03 -0.47122753048E+03 -0.37782968075E+02  0.50000000000E+03  0.47000000000E+01 0.  1.
</event>
<event>
 4    1  0.4903958E-004  0.1000000E+04  0.7546771E-02  0.8684367E-01
         11   -1    0    0    0    0  0.00000000000E+00  0.00000000000E+00  0.50000000000E+03  0.50000000000E+03  0.00000000000E+00 0.  1.
        -11   -1    0    0    0    0 -0.00000000000E+00 -0.00000000000E+00 -0.50000000000E+03  0.50000000000E+03  0.00000000000E+00 0. -1.
          5    1    1    2  501    0 -0.20232829957E+03 -0.45659438245E+03 -0.23722122709E+02  0.50000000000E+03  0.47000000000E+01 0. -1.
         -5    1    1    2    0  501  0.20232829957E+03  0.45659438245E+03  0.23722122709E+02  0.50000000000E+03  0.47000000000E+01 0.  1.
</event>
<event>
 4    1  0.4903958E-004  0.1000000E+04  0.7546771E-02  0.8684367E-01
         11   -1    0    0    0    0  0.00000000000E+00  0.00000000000E+00  0.50000000000E+03  0.50000000000E+03  0.00000000000E+00 0. -1.
        -11   -1    0    0    0    0 -0.00000000000E+00 -0.00000000000E+00 -0.50000000000E+03  0.50000000000E+03  0.00000000000E+00 0.  1.
          5    1    1    2  501    0  0.35295278212E+03 -0.12975441248E+02  0.35388399443E+03  0.50000000000E+03  0.47000000000E+01 0. -1.
         -5    1    1    2    0  501 -0.35295278212E+03  0.12975441248E+02 -0.35388399443E+03  0.50000000000E+03  0.47000000000E+01 0.  1.
</event>
<event>
 4    1  0.4903958E-004  0.1000000E+04  0.7546771E-02  0.8684367E-01
         11   -1    0    0    0    0  0.00000000000E+00  0.00000000000E+00  0.50000000000E+03  0.50000000000E+03  0.00000000000E+00 0.  1.
        -11   -1    0    0    0    0 -0.00000000000E+00 -0.00000000000E+00 -0.50000000000E+03  0.50000000000E+03  0.00000000000E+00 0. -1.
          5    1    1    2  501    0 -0.25607392617E+03  0.31068545631E+02  0.42829755989E+03  0.50000000000E+03  0.47000000000E+01 0.  1.
         -5    1    1    2    0  501  0.25607392617E+03 -0.31068545631E+02 -0.42829755989E+03  0.50000000000E+03  0.47000000000E+01 0. -1.
</event>
<event>
 4    1  0.4903958E-004  0.1000000E+04  0.7546771E-02  0.8684367E-01
         11   -1    0    0    0    0  0.00000000000E+00  0.00000000000E+00  0.50000000000E+03  0.50000000000E+03  0.00000000000E+00 0. -1.
        -11   -1    0    0    0    0 -0.00000000000E+00 -0.00000000000E+00 -0.50000000000E+03  0.50000000000E+03  0.00000000000E+00 0.  1.
          5    1    1    2  501    0 -0.19759425726E+03  0.38785855349E+03  0.24596780680E+03  0.50000000000E+03  0.47000000000E+01 0. -1.
         -5    1    1    2    0  501  0.19759425726E+03 -0.38785855349E+03 -0.24596780680E+03  0.50000000000E+03  0.47000000000E+01 0.  1.
</event>
<event>
 4    1  0.4903958E-004  0.1000000E+04  0.7546771E-02  0.8684367E-01
         11   -1    0    0    0    0  0.00000000000E+00  0.00000000000E+00  0.50000000000E+03  0.50000000000E+03  0.00000000000E+00 0. -1.
        -11   -1    0    0    0    0 -0.00000000000E+00 -0.00000000000E+00 -0.50000000000E+03  0.50000000000E+03  0.00000000000E+00 0.  1.
          5    1    1    2  501    0 -0.45905717532E+03  0.15317575861E+03  0.12562486521E+03  0.50000000000E+03  0.47000000000E+01 0. -1.
         -5    1    1    2    0  501  0.45905717532E+03 -0.15317575861E+03 -0.12562486521E+03  0.50000000000E+03  0.47000000000E+01 0.  1.
</event>
<event>
 4    1  0.4903958E-004  0.1000000E+04  0.7546771E-02  0.8684367E-01
         11   -1    0    0    0    0  0.00000000000E+00  0.00000000000E+00  0.50000000000E+03  0.50000000000E+03  0.00000000000E+00 0. -1.
        -11   -1    0    0    0    0 -0.00000000000E+00 -0.00000000000E+00 -0.50000000000E+03  0.50000000000E+03  0.00000000000E+00 0.  1.
          5    1    1    2  501    0 -0.15949738427E+03 -0.28975989045E+03  0.37493692842E+03  0.50000000000E+03  0.47000000000E+01 0. -1.
         -5    1    1    2    0  501  0.15949738427E+03  0.28975989045E+03 -0.37493692842E+03  0.50000000000E+03  0.47000000000E+01 0.  1.
</event>
<event>
 4    1  0.4903958E-004  0.1000000E+04  0.7546771E-02  0.8684367E-01
         11   -1    0    0    0    0  0.00000000000E+00  0.00000000000E+00  0.50000000000E+03  0.50000000000E+03  0.00000000000E+00 0. -1.
        -11   -1    0    0    0    0 -0.00000000000E+00 -0.00000000000E+00 -0.50000000000E+03  0.50000000000E+03  0.00000000000E+00 0.  1.
          5    1    1    2  501    0  0.88633061722E+02  0.44015719027E+03  0.21996303832E+03  0.50000000000E+03  0.47000000000E+01 0. -1.
         -5    1    1    2    0  501 -0.88633061722E+02 -0.44015719027E+03 -0.21996303832E+03  0.50000000000E+03  0.47000000000E+01 0.  1.
</event>
<event>
 4    1  0.4903958E-004  0.1000000E+04  0.7546771E-02  0.8684367E-01
         11   -1    0    0    0    0  0.00000000000E+00  0.00000000000E+00  0.50000000000E+03  0.50000000000E+03  0.00000000000E+00 0. -1.
        -11   -1    0    0    0    0 -0.00000000000E+00 -0.00000000000E+00 -0.50000000000E+03  0.50000000000E+03  0.00000000000E+00 0.  1.
          5    1    1    2  501    0 -0.34419396829E+03  0.34478769754E+03  0.11238267580E+03  0.50000000000E+03  0.47000000000E+01 0. -1.
         -5    1    1    2    0  501  0.34419396829E+03 -0.34478769754E+03 -0.11238267580E+03  0.50000000000E+03  0.47000000000E+01 0.  1.
</event>
<event>
 4    1  0.4903958E-004  0.1000000E+04  0.7546771E-02  0.8684367E-01
         11   -1    0    0    0    0  0.00000000000E+00  0.00000000000E+00  0.50000000000E+03  0.50000000000E+03  0.00000000000E+00 0. -1.
        -11   -1    0    0    0    0 -0.00000000000E+00 -0.00000000000E+00 -0.50000000000E+03  0.50000000000E+03  0.00000000000E+00 0.  1.
          5    1    1    2  501    0  0.44137019094E+03  0.23322908963E+03 -0.27829054910E+02  0.50000000000E+03  0.47000000000E+01 0.  1.
         -5    1    1    2    0  501 -0.44137019094E+03 -0.23322908963E+03  0.27829054910E+02  0.50000000000E+03  0.47000000000E+01 0. -1.
</event>
<event>
 4    1  0.4903958E-004  0.1000000E+04  0.7546771E-02  0.8684367E-01
         11   -1    0    0    0    0  0.00000000000E+00  0.00000000000E+00  0.50000000000E+03  0.50000000000E+03  0.00000000000E+00 0.  1.
        -11   -1    0    0    0    0 -0.00000000000E+00 -0.00000000000E+00 -0.50000000000E+03  0.50000000000E+03  0.00000000000E+00 0. -1.
          5    1    1    2  501    0 -0.19284696260E+03  0.19308283720E+03  0.41893552845E+03  0.50000000000E+03  0.47000000000E+01 0.  1.
         -5    1    1    2    0  501  0.19284696260E+03 -0.19308283720E+03 -0.41893552845E+03  0.50000000000E+03  0.47000000000E+01 0. -1.
</event>
<event>
 4    1  0.4903958E-004  0.1000000E+04  0.7546771E-02  0.8684367E-01
         11   -1    0    0    0    0  0.00000000000E+00  0.00000000000E+00  0.50000000000E+03  0.50000000000E+03  0.00000000000E+00 0.  1.
        -11   -1    0    0    0    0 -0.00000000000E+00 -0.00000000000E+00 -0.50000000000E+03  0.50000000000E+03  0.00000000000E+00 0. -1.
          5    1    1    2  501    0  0.99195752103E+02  0.15469525753E+03  0.46498117173E+03  0.50000000000E+03  0.47000000000E+01 0.  1.
         -5    1    1    2    0  501 -0.99195752103E+02 -0.15469525753E+03 -0.46498117173E+03  0.50000000000E+03  0.47000000000E+01 0. -1.
</event>
<event>
 4    1  0.4903958E-004  0.1000000E+04  0.7546771E-02  0.8684367E-01
         11   -1    0    0    0    0  0.00000000000E+00  0.00000000000E+00  0.50000000000E+03  0.50000000000E+03  0.00000000000E+00 0. -1.
        -11   -1    0    0    0    0 -0.00000000000E+00 -0.00000000000E+00 -0.50000000000E+03  0.50000000000E+03  0.00000000000E+00 0.  1.
          5    1    1    2  501    0  0.35135047615E+03 -0.34474249023E+03  0.87654824958E+02  0.50000000000E+03  0.47000000000E+01 0. -1.
         -5    1    1    2    0  501 -0.35135047615E+03  0.34474249023E+03 -0.87654824958E+02  0.50000000000E+03  0.47000000000E+01 0.  1.
</event>
<event>
 4    1  0.4903958E-004  0.1000000E+04  0.7546771E-02  0.8684367E-01
         11   -1    0    0    0    0  0.00000000000E+00  0.00000000000E+00  0.50000000000E+03  0.50000000000E+03  0.00000000000E+00 0.  1.
        -11   -1    0    0    0    0 -0.00000000000E+00 -0.00000000000E+00 -0.50000000000E+03  0.50000000000E+03  0.00000000000E+00 0. -1.
          5    1    1    2  501    0 -0.18463904260E+03 -0.43789587125E+03 -0.15534973411E+03  0.50000000000E+03  0.47000000000E+01 0. -1.
         -5    1    1    2    0  501  0.18463904260E+03  0.43789587125E+03  0.15534973411E+03  0.50000000000E+03  0.47000000000E+01 0.  1.
</event>
<event>
 4    1  0.4903958E-004  0.1000000E+04  0.7546771E-02  0.8684367E-01
         11   -1    0    0    0    0  0.00000000000E+00  0.00000000000E+00  0.50000000000E+03  0.50000000000E+03  0.00000000000E+00 0. -1.
        -11   -1    0    0    0    0 -0.00000000000E+00 -0.00000000000E+00 -0.50000000000E+03  0.50000000000E+03  0.00000000000E+00 0.  1.
          5    1    1    2  501    0  0.31122811038E+03  0.27870851692E+03  0.27465712426E+03  0.50000000000E+03  0.47000000000E+01 0. -1.
         -5    1    1    2    0  501 -0.31122811038E+03 -0.27870851692E+03 -0.27465712426E+03  0.50000000000E+03  0.47000000000E+01 0.  1.
</event>
<event>
 4    1  0.4903958E-004  0.1000000E+04  0.7546771E-02  0.8684367E-01
         11   -1    0    0    0    0  0.00000000000E+00  0.00000000000E+00  0.50000000000E+03  0.50000000000E+03  0.00000000000E+00 0. -1.
        -11   -1    0    0    0    0 -0.00000000000E+00 -0.00000000000E+00 -0.50000000000E+03  0.50000000000E+03  0.00000000000E+00 0.  1.
          5    1    1    2  501    0 -0.95596050516E+02  0.48977204008E+03 -0.31026664004E+02  0.50000000000E+03  0.47000000000E+01 0. -1.
         -5    1    1    2    0  501  0.95596050516E+02 -0.48977204008E+03  0.31026664004E+02  0.50000000000E+03  0.47000000000E+01 0.  1.
</event>
<event>
 4    1  0.4903958E-004  0.1000000E+04  0.7546771E-02  0.8684367E-01
         11   -1    0    0    0    0  0.00000000000E+00  0.00000000000E+00  0.50000000000E+03  0.50000000000E+03  0.00000000000E+00 0. -1.
        -11   -1    0    0    0    0 -0.00000000000E+00 -0.00000000000E+00 -0.50000000000E+03  0.50000000000E+03  0.00000000000E+00 0.  1.
          5    1    1    2  501    0  0.38638806266E+03 -0.20331966470E+03  0.24360478028E+03  0.50000000000E+03  0.47000000000E+01 0. -1.
         -5    1    1    2    0  501 -0.38638806266E+03  0.20331966470E+03 -0.24360478028E+03  0.50000000000E+03  0.47000000000E+01 0.  1.
</event>
<event>
 4    1  0.4903958E-004  0.1000000E+04  0.7546771E-02  0.8684367E-01
         11   -1    0    0    0    0  0.00000000000E+00  0.00000000000E+00  0.50000000000E+03  0.50000000000E+03  0.00000000000E+00 0. -1.
        -11   -1    0    0    0    0 -0.00000000000E+00 -0.00000000000E+00 -0.50000000000E+03  0.50000000000E+03  0.00000000000E+00 0.  1.
          5    1    1    2  501    0 -0.31403485312E+02 -0.49888073976E+03  0.10475619791E+02  0.50000000000E+03  0.47000000000E+01 0. -1.
         -5    1    1    2    0  501  0.31403485312E+02  0.49888073976E+03 -0.10475619791E+02  0.50000000000E+03  0.47000000000E+01 0.  1.
</event>
<event>
 4    1  0.4903958E-004  0.1000000E+04  0.7546771E-02  0.8684367E-01
         11   -1    0    0    0    0  0.00000000000E+00  0.00000000000E+00  0.50000000000E+03  0.50000000000E+03  0.00000000000E+00 0.  1.
        -11   -1    0    0    0    0 -0.00000000000E+00 -0.00000000000E+00 -0.50000000000E+03  0.50000000000E+03  0.00000000000E+00 0. -1.
          5    1    1    2  501    0  0.79734406338E+02 -0.79561336244E+02 -0.48712455103E+03  0.50000000000E+03  0.47000000000E+01 0. -1.
         -5    1    1    2    0  501 -0.79734406338E+02  0.79561336244E+02  0.48712455103E+03  0.50000000000E+03  0.47000000000E+01 0.  1.
</event>
<event>
 4    1  0.4903958E-004  0.1000000E+04  0.7546771E-02  0.8684367E-01
         11   -1    0    0    0    0  0.00000000000E+00  0.00000000000E+00  0.50000000000E+03  0.50000000000E+03  0.00000000000E+00 0. -1.
        -11   -1    0    0    0    0 -0.00000000000E+00 -0.00000000000E+00 -0.50000000000E+03  0.50000000000E+03  0.00000000000E+00 0.  1.
          5    1    1    2  501    0 -0.15290976467E+02 -0.39700781053E+03 -0.30352741955E+03  0.50000000000E+03  0.47000000000E+01 0. -1.
         -5    1    1    2    0  501  0.15290976467E+02  0.39700781053E+03  0.30352741955E+03  0.50000000000E+03  0.47000000000E+01 0.  1.
</event>
<event>
 4    1  0.4903958E-004  0.1000000E+04  0.7546771E-02  0.8684367E-01
         11   -1    0    0    0    0  0.00000000000E+00  0.00000000000E+00  0.50000000000E+03  0.50000000000E+03  0.00000000000E+00 0. -1.
        -11   -1    0    0    0    0 -0.00000000000E+00 -0.00000000000E+00 -0.50000000000E+03  0.50000000000E+03  0.00000000000E+00 0.  1.
          5    1    1    2  501    0 -0.29517586844E+03  0.40330171958E+03 -0.14029956371E+02  0.50000000000E+03  0.47000000000E+01 0. -1.
         -5    1    1    2    0  501  0.29517586844E+03 -0.40330171958E+03  0.14029956371E+02  0.50000000000E+03  0.47000000000E+01 0.  1.
</event>
<event>
 4    1  0.4903958E-004  0.1000000E+04  0.7546771E-02  0.8684367E-01
         11   -1    0    0    0    0  0.00000000000E+00  0.00000000000E+00  0.50000000000E+03  0.50000000000E+03  0.00000000000E+00 0. -1.
        -11   -1    0    0    0    0 -0.00000000000E+00 -0.00000000000E+00 -0.50000000000E+03  0.50000000000E+03  0.00000000000E+00 0.  1.
          5    1    1    2  501    0 -0.29330175807E+03  0.27790925324E+03  0.29447994104E+03  0.50000000000E+03  0.47000000000E+01 0. -1.
         -5    1    1    2    0  501  0.29330175807E+03 -0.27790925324E+03 -0.29447994104E+03  0.50000000000E+03  0.47000000000E+01 0.  1.
</event>
<event>
 4    1  0.4903958E-004  0.1000000E+04  0.7546771E-02  0.8684367E-01
         11   -1    0    0    0    0  0.00000000000E+00  0.00000000000E+00  0.50000000000E+03  0.50000000000E+03  0.00000000000E+00 0. -1.
        -11   -1    0    0    0    0 -0.00000000000E+00 -0.00000000000E+00 -0.50000000000E+03  0.50000000000E+03  0.00000000000E+00 0.  1.
          5    1    1    2  501    0 -0.29383348409E+03  0.20720031812E+03  0.34743031215E+03  0.50000000000E+03  0.47000000000E+01 0. -1.
         -5    1    1    2    0  501  0.29383348409E+03 -0.20720031812E+03 -0.34743031215E+03  0.50000000000E+03  0.47000000000E+01 0.  1.
</event>
<event>
 4    1  0.4903958E-004  0.1000000E+04  0.7546771E-02  0.8684367E-01
         11   -1    0    0    0    0  0.00000000000E+00  0.00000000000E+00  0.50000000000E+03  0.50000000000E+03  0.00000000000E+00 0. -1.
        -11   -1    0    0    0    0 -0.00000000000E+00 -0.00000000000E+00 -0.50000000000E+03  0.50000000000E+03  0.00000000000E+00 0.  1.
          5    1    1    2  501    0  0.42459927388E+02 -0.44190311779E+03  0.22999282392E+03  0.50000000000E+03  0.47000000000E+01 0. -1.
         -5    1    1    2    0  501 -0.42459927388E+02  0.44190311779E+03 -0.22999282392E+03  0.50000000000E+03  0.47000000000E+01 0.  1.
</event>
<event>
 4    1  0.4903958E-004  0.1000000E+04  0.7546771E-02  0.8684367E-01
         11   -1    0    0    0    0  0.00000000000E+00  0.00000000000E+00  0.50000000000E+03  0.50000000000E+03  0.00000000000E+00 0. -1.
        -11   -1    0    0    0    0 -0.00000000000E+00 -0.00000000000E+00 -0.50000000000E+03  0.50000000000E+03  0.00000000000E+00 0.  1.
          5    1    1    2  501    0  0.90182380137E+01  0.29286369609E+03  0.40512644557E+03  0.50000000000E+03  0.47000000000E+01 0. -1.
         -5    1    1    2    0  501 -0.90182380137E+01 -0.29286369609E+03 -0.40512644557E+03  0.50000000000E+03  0.47000000000E+01 0.  1.
</event>
<event>
 4    1  0.4903958E-004  0.1000000E+04  0.7546771E-02  0.8684367E-01
         11   -1    0    0    0    0  0.00000000000E+00  0.00000000000E+00  0.50000000000E+03  0.50000000000E+03  0.00000000000E+00 0.  1.
        -11   -1    0    0    0    0 -0.00000000000E+00 -0.00000000000E+00 -0.50000000000E+03  0.50000000000E+03  0.00000000000E+00 0. -1.
          5    1    1    2  501    0 -0.13686964131E+03 -0.82827772846E+02  0.47369206383E+03  0.50000000000E+03  0.47000000000E+01 0.  1.
         -5    1    1    2    0  501  0.13686964131E+03  0.82827772846E+02 -0.47369206383E+03  0.50000000000E+03  0.47000000000E+01 0. -1.
</event>
<event>
 4    1  0.4903958E-004  0.1000000E+04  0.7546771E-02  0.8684367E-01
         11   -1    0    0    0    0  0.00000000000E+00  0.00000000000E+00  0.50000000000E+03  0.50000000000E+03  0.00000000000E+00 0. -1.
        -11   -1    0    0    0    0 -0.00000000000E+00 -0.00000000000E+00 -0.50000000000E+03  0.50000000000E+03  0.00000000000E+00 0.  1.
          5    1    1    2  501    0 -0.37185694905E+03 -0.30047463478E+03  0.14633971881E+03  0.50000000000E+03  0.47000000000E+01 0. -1.
         -5    1    1    2    0  501  0.37185694905E+03  0.30047463478E+03 -0.14633971881E+03  0.50000000000E+03  0.47000000000E+01 0.  1.
</event>
<event>
 4    1  0.4903958E-004  0.1000000E+04  0.7546771E-02  0.8684367E-01
         11   -1    0    0    0    0  0.00000000000E+00  0.00000000000E+00  0.50000000000E+03  0.50000000000E+03  0.00000000000E+00 0. -1.
        -11   -1    0    0    0    0 -0.00000000000E+00 -0.00000000000E+00 -0.50000000000E+03  0.50000000000E+03  0.00000000000E+00 0.  1.
          5    1    1    2  501    0  0.22222223539E+03 -0.65413280434E+02  0.44307594252E+03  0.50000000000E+03  0.47000000000E+01 0. -1.
         -5    1    1    2    0  501 -0.22222223539E+03  0.65413280434E+02 -0.44307594252E+03  0.50000000000E+03  0.47000000000E+01 0.  1.
</event>
<event>
 4    1  0.4903958E-004  0.1000000E+04  0.7546771E-02  0.8684367E-01
         11   -1    0    0    0    0  0.00000000000E+00  0.00000000000E+00  0.50000000000E+03  0.50000000000E+03  0.00000000000E+00 0.  1.
        -11   -1    0    0    0    0 -0.00000000000E+00 -0.00000000000E+00 -0.50000000000E+03  0.50000000000E+03  0.00000000000E+00 0. -1.
          5    1    1    2  501    0  0.35828027252E+02 -0.60888189671E+02  0.49496150438E+03  0.50000000000E+03  0.47000000000E+01 0.  1.
         -5    1    1    2    0  501 -0.35828027252E+02  0.60888189671E+02 -0.49496150438E+03  0.50000000000E+03  0.47000000000E+01 0. -1.
</event>
<event>
 4    1  0.4903958E-004  0.1000000E+04  0.7546771E-02  0.8684367E-01
         11   -1    0    0    0    0  0.00000000000E+00  0.00000000000E+00  0.50000000000E+03  0.50000000000E+03  0.00000000000E+00 0. -1.
        -11   -1    0    0    0    0 -0.00000000000E+00 -0.00000000000E+00 -0.50000000000E+03  0.50000000000E+03  0.00000000000E+00 0.  1.
          5    1    1    2  501    0  0.15752929547E+03 -0.36981450934E+03  0.29732080275E+03  0.50000000000E+03  0.47000000000E+01 0. -1.
         -5    1    1    2    0  501 -0.15752929547E+03  0.36981450934E+03 -0.29732080275E+03  0.50000000000E+03  0.47000000000E+01 0.  1.
</event>
<event>
 4    1  0.4903958E-004  0.1000000E+04  0.7546771E-02  0.8684367E-01
         11   -1    0    0    0    0  0.00000000000E+00  0.00000000000E+00  0.50000000000E+03  0.50000000000E+03  0.00000000000E+00 0. -1.
        -11   -1    0    0    0    0 -0.00000000000E+00 -0.00000000000E+00 -0.50000000000E+03  0.50000000000E+03  0.00000000000E+00 0.  1.
          5    1    1    2  501    0  0.22143302307E+03 -0.16363091431E+02  0.44797050744E+03  0.50000000000E+03  0.47000000000E+01 0. -1.
         -5    1    1    2    0  501 -0.22143302307E+03  0.16363091431E+02 -0.44797050744E+03  0.50000000000E+03  0.47000000000E+01 0.  1.
</event>
<event>
 4    1  0.4903958E-004  0.1000000E+04  0.7546771E-02  0.8684367E-01
         11   -1    0    0    0    0  0.00000000000E+00  0.00000000000E+00  0.50000000000E+03  0.50000000000E+03  0.00000000000E+00 0. -1.
        -11   -1    0    0    0    0 -0.00000000000E+00 -0.00000000000E+00 -0.50000000000E+03  0.50000000000E+03  0.00000000000E+00 0.  1.
          5    1    1    2  501    0  0.89800726361E+02 -0.79760732459E+02  0.48533696037E+03  0.50000000000E+03  0.47000000000E+01 0. -1.
         -5    1    1    2    0  501 -0.89800726361E+02  0.79760732459E+02 -0.48533696037E+03  0.50000000000E+03  0.47000000000E+01 0.  1.
</event>
<event>
 4    1  0.4903958E-004  0.1000000E+04  0.7546771E-02  0.8684367E-01
         11   -1    0    0    0    0  0.00000000000E+00  0.00000000000E+00  0.50000000000E+03  0.50000000000E+03  0.00000000000E+00 0. -1.
        -11   -1    0    0    0    0 -0.00000000000E+00 -0.00000000000E+00 -0.50000000000E+03  0.50000000000E+03  0.00000000000E+00 0.  1.
          5    1    1    2  501    0 -0.26148436353E+03  0.30075736740E+03  0.30190866762E+03  0.50000000000E+03  0.47000000000E+01 0. -1.
         -5    1    1    2    0  501  0.26148436353E+03 -0.30075736740E+03 -0.30190866762E+03  0.50000000000E+03  0.47000000000E+01 0.  1.
</event>
<event>
 4    1  0.4903958E-004  0.1000000E+04  0.7546771E-02  0.8684367E-01
         11   -1    0    0    0    0  0.00000000000E+00  0.00000000000E+00  0.50000000000E+03  0.50000000000E+03  0.00000000000E+00 0. -1.
        -11   -1    0    0    0    0 -0.00000000000E+00 -0.00000000000E+00 -0.50000000000E+03  0.50000000000E+03  0.00000000000E+00 0.  1.
          5    1    1    2  501    0  0.46122676042E+03 -0.14755679527E+03  0.12439765933E+03  0.50000000000E+03  0.47000000000E+01 0. -1.
         -5    1    1    2    0  501 -0.46122676042E+03  0.14755679527E+03 -0.12439765933E+03  0.50000000000E+03  0.47000000000E+01 0.  1.
</event>
<event>
 4    1  0.4903958E-004  0.1000000E+04  0.7546771E-02  0.8684367E-01
         11   -1    0    0    0    0  0.00000000000E+00  0.00000000000E+00  0.50000000000E+03  0.50000000000E+03  0.00000000000E+00 0. -1.
        -11   -1    0    0    0    0 -0.00000000000E+00 -0.00000000000E+00 -0.50000000000E+03  0.50000000000E+03  0.00000000000E+00 0.  1.
          5    1    1    2  501    0 -0.36984238506E+03  0.33636824870E+03 -0.71359287373E+01  0.50000000000E+03  0.47000000000E+01 0. -1.
         -5    1    1    2    0  501  0.36984238506E+03 -0.33636824870E+03  0.71359287373E+01  0.50000000000E+03  0.47000000000E+01 0.  1.
</event>
<event>
 4    1  0.4903958E-004  0.1000000E+04  0.7546771E-02  0.8684367E-01
         11   -1    0    0    0    0  0.00000000000E+00  0.00000000000E+00  0.50000000000E+03  0.50000000000E+03  0.00000000000E+00 0. -1.
        -11   -1    0    0    0    0 -0.00000000000E+00 -0.00000000000E+00 -0.50000000000E+03  0.50000000000E+03  0.00000000000E+00 0.  1.
          5    1    1    2  501    0  0.29474420976E+03 -0.10909642025E+03  0.38884666888E+03  0.50000000000E+03  0.47000000000E+01 0. -1.
         -5    1    1    2    0  501 -0.29474420976E+03  0.10909642025E+03 -0.38884666888E+03  0.50000000000E+03  0.47000000000E+01 0.  1.
</event>
<event>
 4    1  0.4903958E-004  0.1000000E+04  0.7546771E-02  0.8684367E-01
         11   -1    0    0    0    0  0.00000000000E+00  0.00000000000E+00  0.50000000000E+03  0.50000000000E+03  0.00000000000E+00 0. -1.
        -11   -1    0    0    0    0 -0.00000000000E+00 -0.00000000000E+00 -0.50000000000E+03  0.50000000000E+03  0.00000000000E+00 0.  1.
          5    1    1    2  501    0  0.29538913886E+03 -0.11521424197E+03 -0.38658614188E+03  0.50000000000E+03  0.47000000000E+01 0.  1.
         -5    1    1    2    0  501 -0.29538913886E+03  0.11521424197E+03  0.38658614188E+03  0.50000000000E+03  0.47000000000E+01 0. -1.
</event>
<event>
 4    1  0.4903958E-004  0.1000000E+04  0.7546771E-02  0.8684367E-01
         11   -1    0    0    0    0  0.00000000000E+00  0.00000000000E+00  0.50000000000E+03  0.50000000000E+03  0.00000000000E+00 0. -1.
        -11   -1    0    0    0    0 -0.00000000000E+00 -0.00000000000E+00 -0.50000000000E+03  0.50000000000E+03  0.00000000000E+00 0.  1.
          5    1    1    2  501    0 -0.70070531307E+02 -0.30620422736E+03  0.38898200702E+03  0.50000000000E+03  0.47000000000E+01 0. -1.
         -5    1    1    2    0  501  0.70070531307E+02  0.30620422736E+03 -0.38898200702E+03  0.50000000000E+03  0.47000000000E+01 0.  1.
</event>
<event>
 4    1  0.4903958E-004  0.1000000E+04  0.7546771E-02  0.8684367E-01
         11   -1    0    0    0    0  0.00000000000E+00  0.00000000000E+00  0.50000000000E+03  0.50000000000E+03  0.00000000000E+00 0. -1.
        -11   -1    0    0    0    0 -0.00000000000E+00 -0.00000000000E+00 -0.50000000000E+03  0.50000000000E+03  0.00000000000E+00 0.  1.
          5    1    1    2  501    0  0.36456737132E+03 -0.29821352296E+03  0.16774157652E+03  0.50000000000E+03  0.47000000000E+01 0. -1.
         -5    1    1    2    0  501 -0.36456737132E+03  0.29821352296E+03 -0.16774157652E+03  0.50000000000E+03  0.47000000000E+01 0.  1.
</event>
<event>
 4    1  0.4903958E-004  0.1000000E+04  0.7546771E-02  0.8684367E-01
         11   -1    0    0    0    0  0.00000000000E+00  0.00000000000E+00  0.50000000000E+03  0.50000000000E+03  0.00000000000E+00 0. -1.
        -11   -1    0    0    0    0 -0.00000000000E+00 -0.00000000000E+00 -0.50000000000E+03  0.50000000000E+03  0.00000000000E+00 0.  1.
          5    1    1    2  501    0  0.56371007459E+02 -0.46347770240E+03  0.17885368012E+03  0.50000000000E+03  0.47000000000E+01 0. -1.
         -5    1    1    2    0  501 -0.56371007459E+02  0.46347770240E+03 -0.17885368012E+03  0.50000000000E+03  0.47000000000E+01 0.  1.
</event>
<event>
 4    1  0.4903958E-004  0.1000000E+04  0.7546771E-02  0.8684367E-01
         11   -1    0    0    0    0  0.00000000000E+00  0.00000000000E+00  0.50000000000E+03  0.50000000000E+03  0.00000000000E+00 0. -1.
        -11   -1    0    0    0    0 -0.00000000000E+00 -0.00000000000E+00 -0.50000000000E+03  0.50000000000E+03  0.00000000000E+00 0.  1.
          5    1    1    2  501    0  0.42866558602E+03  0.72893237461E+02  0.24680012417E+03  0.50000000000E+03  0.47000000000E+01 0. -1.
         -5    1    1    2    0  501 -0.42866558602E+03 -0.72893237461E+02 -0.24680012417E+03  0.50000000000E+03  0.47000000000E+01 0.  1.
</event>
<event>
 4    1  0.4903958E-004  0.1000000E+04  0.7546771E-02  0.8684367E-01
         11   -1    0    0    0    0  0.00000000000E+00  0.00000000000E+00  0.50000000000E+03  0.50000000000E+03  0.00000000000E+00 0. -1.
        -11   -1    0    0    0    0 -0.00000000000E+00 -0.00000000000E+00 -0.50000000000E+03  0.50000000000E+03  0.00000000000E+00 0.  1.
          5    1    1    2  501    0 -0.24045017900E+02  0.11986800863E+03  0.48480037915E+03  0.50000000000E+03  0.47000000000E+01 0. -1.
         -5    1    1    2    0  501  0.24045017900E+02 -0.11986800863E+03 -0.48480037915E+03  0.50000000000E+03  0.47000000000E+01 0.  1.
</event>
<event>
 4    1  0.4903958E-004  0.1000000E+04  0.7546771E-02  0.8684367E-01
         11   -1    0    0    0    0  0.00000000000E+00  0.00000000000E+00  0.50000000000E+03  0.50000000000E+03  0.00000000000E+00 0. -1.
        -11   -1    0    0    0    0 -0.00000000000E+00 -0.00000000000E+00 -0.50000000000E+03  0.50000000000E+03  0.00000000000E+00 0.  1.
          5    1    1    2  501    0  0.10248293957E+03 -0.14743493432E+03  0.46662414987E+03  0.50000000000E+03  0.47000000000E+01 0. -1.
         -5    1    1    2    0  501 -0.10248293957E+03  0.14743493432E+03 -0.46662414987E+03  0.50000000000E+03  0.47000000000E+01 0.  1.
</event>
<event>
 4    1  0.4903958E-004  0.1000000E+04  0.7546771E-02  0.8684367E-01
         11   -1    0    0    0    0  0.00000000000E+00  0.00000000000E+00  0.50000000000E+03  0.50000000000E+03  0.00000000000E+00 0. -1.
        -11   -1    0    0    0    0 -0.00000000000E+00 -0.00000000000E+00 -0.50000000000E+03  0.50000000000E+03  0.00000000000E+00 0.  1.
          5    1    1    2  501    0  0.40453316710E+03 -0.26967632912E+03  0.11664263468E+03  0.50000000000E+03  0.47000000000E+01 0. -1.
         -5    1    1    2    0  501 -0.40453316710E+03  0.26967632912E+03 -0.11664263468E+03  0.50000000000E+03  0.47000000000E+01 0.  1.
</event>
<event>
 4    1  0.4903958E-004  0.1000000E+04  0.7546771E-02  0.8684367E-01
         11   -1    0    0    0    0  0.00000000000E+00  0.00000000000E+00  0.50000000000E+03  0.50000000000E+03  0.00000000000E+00 0. -1.
        -11   -1    0    0    0    0 -0.00000000000E+00 -0.00000000000E+00 -0.50000000000E+03  0.50000000000E+03  0.00000000000E+00 0.  1.
          5    1    1    2  501    0  0.33014621322E+03  0.36708095531E+03 -0.78949098449E+02  0.50000000000E+03  0.47000000000E+01 0. -1.
         -5    1    1    2    0  501 -0.33014621322E+03 -0.36708095531E+03  0.78949098449E+02  0.50000000000E+03  0.47000000000E+01 0.  1.
</event>
<event>
 4    1  0.4903958E-004  0.1000000E+04  0.7546771E-02  0.8684367E-01
         11   -1    0    0    0    0  0.00000000000E+00  0.00000000000E+00  0.50000000000E+03  0.50000000000E+03  0.00000000000E+00 0. -1.
        -11   -1    0    0    0    0 -0.00000000000E+00 -0.00000000000E+00 -0.50000000000E+03  0.50000000000E+03  0.00000000000E+00 0.  1.
          5    1    1    2  501    0  0.47435961727E+03 -0.55882648492E+02 -0.14777683545E+03  0.50000000000E+03  0.47000000000E+01 0. -1.
         -5    1    1    2    0  501 -0.47435961727E+03  0.55882648492E+02  0.14777683545E+03  0.50000000000E+03  0.47000000000E+01 0.  1.
</event>
<event>
 4    1  0.4903958E-004  0.1000000E+04  0.7546771E-02  0.8684367E-01
         11   -1    0    0    0    0  0.00000000000E+00  0.00000000000E+00  0.50000000000E+03  0.50000000000E+03  0.00000000000E+00 0. -1.
        -11   -1    0    0    0    0 -0.00000000000E+00 -0.00000000000E+00 -0.50000000000E+03  0.50000000000E+03  0.00000000000E+00 0.  1.
          5    1    1    2  501    0  0.21678344218E+03 -0.36421684744E+03  0.26519603548E+03  0.50000000000E+03  0.47000000000E+01 0. -1.
         -5    1    1    2    0  501 -0.21678344218E+03  0.36421684744E+03 -0.26519603548E+03  0.50000000000E+03  0.47000000000E+01 0.  1.
</event>
<event>
 4    1  0.4903958E-004  0.1000000E+04  0.7546771E-02  0.8684367E-01
         11   -1    0    0    0    0  0.00000000000E+00  0.00000000000E+00  0.50000000000E+03  0.50000000000E+03  0.00000000000E+00 0. -1.
        -11   -1    0    0    0    0 -0.00000000000E+00 -0.00000000000E+00 -0.50000000000E+03  0.50000000000E+03  0.00000000000E+00 0.  1.
          5    1    1    2  501    0  0.38526308873E+03  0.10042273955E+03  0.30243269639E+03  0.50000000000E+03  0.47000000000E+01 0. -1.
         -5    1    1    2    0  501 -0.38526308873E+03 -0.10042273955E+03 -0.30243269639E+03  0.50000000000E+03  0.47000000000E+01 0.  1.
</event>
<event>
 4    1  0.4903958E-004  0.1000000E+04  0.7546771E-02  0.8684367E-01
         11   -1    0    0    0    0  0.00000000000E+00  0.00000000000E+00  0.50000000000E+03  0.50000000000E+03  0.00000000000E+00 0. -1.
        -11   -1    0    0    0    0 -0.00000000000E+00 -0.00000000000E+00 -0.50000000000E+03  0.50000000000E+03  0.00000000000E+00 0.  1.
          5    1    1    2  501    0 -0.28828002223E+03 -0.31383935242E+03  0.26149072575E+03  0.50000000000E+03  0.47000000000E+01 0. -1.
         -5    1    1    2    0  501  0.28828002223E+03  0.31383935242E+03 -0.26149072575E+03  0.50000000000E+03  0.47000000000E+01 0.  1.
</event>
<event>
 4    1  0.4903958E-004  0.1000000E+04  0.7546771E-02  0.8684367E-01
         11   -1    0    0    0    0  0.00000000000E+00  0.00000000000E+00  0.50000000000E+03  0.50000000000E+03  0.00000000000E+00 0. -1.
        -11   -1    0    0    0    0 -0.00000000000E+00 -0.00000000000E+00 -0.50000000000E+03  0.50000000000E+03  0.00000000000E+00 0.  1.
          5    1    1    2  501    0  0.40289888884E+03  0.25682578738E+03  0.14727834299E+03  0.50000000000E+03  0.47000000000E+01 0. -1.
         -5    1    1    2    0  501 -0.40289888884E+03 -0.25682578738E+03 -0.14727834299E+03  0.50000000000E+03  0.47000000000E+01 0.  1.
</event>
<event>
 4    1  0.4903958E-004  0.1000000E+04  0.7546771E-02  0.8684367E-01
         11   -1    0    0    0    0  0.00000000000E+00  0.00000000000E+00  0.50000000000E+03  0.50000000000E+03  0.00000000000E+00 0. -1.
        -11   -1    0    0    0    0 -0.00000000000E+00 -0.00000000000E+00 -0.50000000000E+03  0.50000000000E+03  0.00000000000E+00 0.  1.
          5    1    1    2  501    0  0.39032067559E+01  0.46262070162E+03  0.18959103726E+03  0.50000000000E+03  0.47000000000E+01 0. -1.
         -5    1    1    2    0  501 -0.39032067559E+01 -0.46262070162E+03 -0.18959103726E+03  0.50000000000E+03  0.47000000000E+01 0.  1.
</event>
<event>
 4    1  0.4903958E-004  0.1000000E+04  0.7546771E-02  0.8684367E-01
         11   -1    0    0    0    0  0.00000000000E+00  0.00000000000E+00  0.50000000000E+03  0.50000000000E+03  0.00000000000E+00 0.  1.
        -11   -1    0    0    0    0 -0.00000000000E+00 -0.00000000000E+00 -0.50000000000E+03  0.50000000000E+03  0.00000000000E+00 0. -1.
          5    1    1    2  501    0  0.25181889565E+03  0.30168372843E+03 -0.30911499768E+03  0.50000000000E+03  0.47000000000E+01 0. -1.
         -5    1    1    2    0  501 -0.25181889565E+03 -0.30168372843E+03  0.30911499768E+03  0.50000000000E+03  0.47000000000E+01 0.  1.
</event>
<event>
 4    1  0.4903958E-004  0.1000000E+04  0.7546771E-02  0.8684367E-01
         11   -1    0    0    0    0  0.00000000000E+00  0.00000000000E+00  0.50000000000E+03  0.50000000000E+03  0.00000000000E+00 0. -1.
        -11   -1    0    0    0    0 -0.00000000000E+00 -0.00000000000E+00 -0.50000000000E+03  0.50000000000E+03  0.00000000000E+00 0.  1.
          5    1    1    2  501    0  0.79543728862E+02  0.37208734152E+03  0.32434813931E+03  0.50000000000E+03  0.47000000000E+01 0. -1.
         -5    1    1    2    0  501 -0.79543728862E+02 -0.37208734152E+03 -0.32434813931E+03  0.50000000000E+03  0.47000000000E+01 0.  1.
</event>
<event>
 4    1  0.4903958E-004  0.1000000E+04  0.7546771E-02  0.8684367E-01
         11   -1    0    0    0    0  0.00000000000E+00  0.00000000000E+00  0.50000000000E+03  0.50000000000E+03  0.00000000000E+00 0. -1.
        -11   -1    0    0    0    0 -0.00000000000E+00 -0.00000000000E+00 -0.50000000000E+03  0.50000000000E+03  0.00000000000E+00 0.  1.
          5    1    1    2  501    0 -0.24874861354E+03 -0.31689385103E+03  0.29610863622E+03  0.50000000000E+03  0.47000000000E+01 0. -1.
         -5    1    1    2    0  501  0.24874861354E+03  0.31689385103E+03 -0.29610863622E+03  0.50000000000E+03  0.47000000000E+01 0.  1.
</event>
<event>
 4    1  0.4903958E-004  0.1000000E+04  0.7546771E-02  0.8684367E-01
         11   -1    0    0    0    0  0.00000000000E+00  0.00000000000E+00  0.50000000000E+03  0.50000000000E+03  0.00000000000E+00 0. -1.
        -11   -1    0    0    0    0 -0.00000000000E+00 -0.00000000000E+00 -0.50000000000E+03  0.50000000000E+03  0.00000000000E+00 0.  1.
          5    1    1    2  501    0  0.21917236494E+03 -0.42894617182E+03  0.13396479435E+03  0.50000000000E+03  0.47000000000E+01 0. -1.
         -5    1    1    2    0  501 -0.21917236494E+03  0.42894617182E+03 -0.13396479435E+03  0.50000000000E+03  0.47000000000E+01 0.  1.
</event>
<event>
 4    1  0.4903958E-004  0.1000000E+04  0.7546771E-02  0.8684367E-01
         11   -1    0    0    0    0  0.00000000000E+00  0.00000000000E+00  0.50000000000E+03  0.50000000000E+03  0.00000000000E+00 0. -1.
        -11   -1    0    0    0    0 -0.00000000000E+00 -0.00000000000E+00 -0.50000000000E+03  0.50000000000E+03  0.00000000000E+00 0.  1.
          5    1    1    2  501    0  0.38165239815E+03 -0.25082124667E+03  0.20348970295E+03  0.50000000000E+03  0.47000000000E+01 0. -1.
         -5    1    1    2    0  501 -0.38165239815E+03  0.25082124667E+03 -0.20348970295E+03  0.50000000000E+03  0.47000000000E+01 0.  1.
</event>
<event>
 4    1  0.4903958E-004  0.1000000E+04  0.7546771E-02  0.8684367E-01
         11   -1    0    0    0    0  0.00000000000E+00  0.00000000000E+00  0.50000000000E+03  0.50000000000E+03  0.00000000000E+00 0. -1.
        -11   -1    0    0    0    0 -0.00000000000E+00 -0.00000000000E+00 -0.50000000000E+03  0.50000000000E+03  0.00000000000E+00 0.  1.
          5    1    1    2  501    0  0.43946718491E+03  0.13477827690E+03  0.19667567074E+03  0.50000000000E+03  0.47000000000E+01 0. -1.
         -5    1    1    2    0  501 -0.43946718491E+03 -0.13477827690E+03 -0.19667567074E+03  0.50000000000E+03  0.47000000000E+01 0.  1.
</event>
<event>
 4    1  0.4903958E-004  0.1000000E+04  0.7546771E-02  0.8684367E-01
         11   -1    0    0    0    0  0.00000000000E+00  0.00000000000E+00  0.50000000000E+03  0.50000000000E+03  0.00000000000E+00 0. -1.
        -11   -1    0    0    0    0 -0.00000000000E+00 -0.00000000000E+00 -0.50000000000E+03  0.50000000000E+03  0.00000000000E+00 0.  1.
          5    1    1    2  501    0  0.52738473219E+02 -0.20124169479E+03  0.45464089534E+03  0.50000000000E+03  0.47000000000E+01 0. -1.
         -5    1    1    2    0  501 -0.52738473219E+02  0.20124169479E+03 -0.45464089534E+03  0.50000000000E+03  0.47000000000E+01 0.  1.
</event>
<event>
 4    1  0.4903958E-004  0.1000000E+04  0.7546771E-02  0.8684367E-01
         11   -1    0    0    0    0  0.00000000000E+00  0.00000000000E+00  0.50000000000E+03  0.50000000000E+03  0.00000000000E+00 0. -1.
        -11   -1    0    0    0    0 -0.00000000000E+00 -0.00000000000E+00 -0.50000000000E+03  0.50000000000E+03  0.00000000000E+00 0.  1.
          5    1    1    2  501    0 -0.32637169248E+03  0.60343937383E+02  0.37392250209E+03  0.50000000000E+03  0.47000000000E+01 0. -1.
         -5    1    1    2    0  501  0.32637169248E+03 -0.60343937383E+02 -0.37392250209E+03  0.50000000000E+03  0.47000000000E+01 0.  1.
</event>
<event>
 4    1  0.4903958E-004  0.1000000E+04  0.7546771E-02  0.8684367E-01
         11   -1    0    0    0    0  0.00000000000E+00  0.00000000000E+00  0.50000000000E+03  0.50000000000E+03  0.00000000000E+00 0.  1.
        -11   -1    0    0    0    0 -0.00000000000E+00 -0.00000000000E+00 -0.50000000000E+03  0.50000000000E+03  0.00000000000E+00 0. -1.
          5    1    1    2  501    0 -0.25008651156E+03  0.30379189369E+03 -0.30845604560E+03  0.50000000000E+03  0.47000000000E+01 0. -1.
         -5    1    1    2    0  501  0.25008651156E+03 -0.30379189369E+03  0.30845604560E+03  0.50000000000E+03  0.47000000000E+01 0.  1.
</event>
<event>
 4    1  0.4903958E-004  0.1000000E+04  0.7546771E-02  0.8684367E-01
         11   -1    0    0    0    0  0.00000000000E+00  0.00000000000E+00  0.50000000000E+03  0.50000000000E+03  0.00000000000E+00 0. -1.
        -11   -1    0    0    0    0 -0.00000000000E+00 -0.00000000000E+00 -0.50000000000E+03  0.50000000000E+03  0.00000000000E+00 0.  1.
          5    1    1    2  501    0 -0.14108860364E+02  0.44686147428E+03 -0.22381615862E+03  0.50000000000E+03  0.47000000000E+01 0. -1.
         -5    1    1    2    0  501  0.14108860364E+02 -0.44686147428E+03  0.22381615862E+03  0.50000000000E+03  0.47000000000E+01 0.  1.
</event>
<event>
 4    1  0.4903958E-004  0.1000000E+04  0.7546771E-02  0.8684367E-01
         11   -1    0    0    0    0  0.00000000000E+00  0.00000000000E+00  0.50000000000E+03  0.50000000000E+03  0.00000000000E+00 0. -1.
        -11   -1    0    0    0    0 -0.00000000000E+00 -0.00000000000E+00 -0.50000000000E+03  0.50000000000E+03  0.00000000000E+00 0.  1.
          5    1    1    2  501    0 -0.83037652827E+02  0.44130335362E+03 -0.21984996770E+03  0.50000000000E+03  0.47000000000E+01 0.  1.
         -5    1    1    2    0  501  0.83037652827E+02 -0.44130335362E+03  0.21984996770E+03  0.50000000000E+03  0.47000000000E+01 0. -1.
</event>
<event>
 4    1  0.4903958E-004  0.1000000E+04  0.7546771E-02  0.8684367E-01
         11   -1    0    0    0    0  0.00000000000E+00  0.00000000000E+00  0.50000000000E+03  0.50000000000E+03  0.00000000000E+00 0. -1.
        -11   -1    0    0    0    0 -0.00000000000E+00 -0.00000000000E+00 -0.50000000000E+03  0.50000000000E+03  0.00000000000E+00 0.  1.
          5    1    1    2  501    0  0.40691164867E+03 -0.15286595990E+03  0.24704821085E+03  0.50000000000E+03  0.47000000000E+01 0. -1.
         -5    1    1    2    0  501 -0.40691164867E+03  0.15286595990E+03 -0.24704821085E+03  0.50000000000E+03  0.47000000000E+01 0.  1.
</event>
<event>
 4    1  0.4903958E-004  0.1000000E+04  0.7546771E-02  0.8684367E-01
         11   -1    0    0    0    0  0.00000000000E+00  0.00000000000E+00  0.50000000000E+03  0.50000000000E+03  0.00000000000E+00 0. -1.
        -11   -1    0    0    0    0 -0.00000000000E+00 -0.00000000000E+00 -0.50000000000E+03  0.50000000000E+03  0.00000000000E+00 0.  1.
          5    1    1    2  501    0  0.16232438194E+03  0.14680608696E+03  0.44952939599E+03  0.50000000000E+03  0.47000000000E+01 0. -1.
         -5    1    1    2    0  501 -0.16232438194E+03 -0.14680608696E+03 -0.44952939599E+03  0.50000000000E+03  0.47000000000E+01 0.  1.
</event>
<event>
 4    1  0.4903958E-004  0.1000000E+04  0.7546771E-02  0.8684367E-01
         11   -1    0    0    0    0  0.00000000000E+00  0.00000000000E+00  0.50000000000E+03  0.50000000000E+03  0.00000000000E+00 0. -1.
        -11   -1    0    0    0    0 -0.00000000000E+00 -0.00000000000E+00 -0.50000000000E+03  0.50000000000E+03  0.00000000000E+00 0.  1.
          5    1    1    2  501    0 -0.29195560689E+02  0.48607870137E+03  0.11337118376E+03  0.50000000000E+03  0.47000000000E+01 0. -1.
         -5    1    1    2    0  501  0.29195560689E+02 -0.48607870137E+03 -0.11337118376E+03  0.50000000000E+03  0.47000000000E+01 0.  1.
</event>
<event>
 4    1  0.4903958E-004  0.1000000E+04  0.7546771E-02  0.8684367E-01
         11   -1    0    0    0    0  0.00000000000E+00  0.00000000000E+00  0.50000000000E+03  0.50000000000E+03  0.00000000000E+00 0.  1.
        -11   -1    0    0    0    0 -0.00000000000E+00 -0.00000000000E+00 -0.50000000000E+03  0.50000000000E+03  0.00000000000E+00 0. -1.
          5    1    1    2  501    0 -0.18204841564E+02  0.49182446937E+03 -0.88063528638E+02  0.50000000000E+03  0.47000000000E+01 0. -1.
         -5    1    1    2    0  501  0.18204841564E+02 -0.49182446937E+03  0.88063528638E+02  0.50000000000E+03  0.47000000000E+01 0.  1.
</event>
<event>
 4    1  0.4903958E-004  0.1000000E+04  0.7546771E-02  0.8684367E-01
         11   -1    0    0    0    0  0.00000000000E+00  0.00000000000E+00  0.50000000000E+03  0.50000000000E+03  0.00000000000E+00 0. -1.
        -11   -1    0    0    0    0 -0.00000000000E+00 -0.00000000000E+00 -0.50000000000E+03  0.50000000000E+03  0.00000000000E+00 0.  1.
          5    1    1    2  501    0  0.38973756257E+02  0.11702408239E+03  0.48452483988E+03  0.50000000000E+03  0.47000000000E+01 0. -1.
         -5    1    1    2    0  501 -0.38973756257E+02 -0.11702408239E+03 -0.48452483988E+03  0.50000000000E+03  0.47000000000E+01 0.  1.
</event>
<event>
 4    1  0.4903958E-004  0.1000000E+04  0.7546771E-02  0.8684367E-01
         11   -1    0    0    0    0  0.00000000000E+00  0.00000000000E+00  0.50000000000E+03  0.50000000000E+03  0.00000000000E+00 0. -1.
        -11   -1    0    0    0    0 -0.00000000000E+00 -0.00000000000E+00 -0.50000000000E+03  0.50000000000E+03  0.00000000000E+00 0.  1.
          5    1    1    2  501    0  0.49286120189E+03 -0.53490248545E+02 -0.64842416559E+02  0.50000000000E+03  0.47000000000E+01 0. -1.
         -5    1    1    2    0  501 -0.49286120189E+03  0.53490248545E+02  0.64842416559E+02  0.50000000000E+03  0.47000000000E+01 0.  1.
</event>
<event>
 4    1  0.4903958E-004  0.1000000E+04  0.7546771E-02  0.8684367E-01
         11   -1    0    0    0    0  0.00000000000E+00  0.00000000000E+00  0.50000000000E+03  0.50000000000E+03  0.00000000000E+00 0.  1.
        -11   -1    0    0    0    0 -0.00000000000E+00 -0.00000000000E+00 -0.50000000000E+03  0.50000000000E+03  0.00000000000E+00 0. -1.
          5    1    1    2  501    0  0.36819977327E+03  0.19285260144E+03  0.27787535170E+03  0.50000000000E+03  0.47000000000E+01 0.  1.
         -5    1    1    2    0  501 -0.36819977327E+03 -0.19285260144E+03 -0.27787535170E+03  0.50000000000E+03  0.47000000000E+01 0. -1.
</event>
<event>
 4    1  0.4903958E-004  0.1000000E+04  0.7546771E-02  0.8684367E-01
         11   -1    0    0    0    0  0.00000000000E+00  0.00000000000E+00  0.50000000000E+03  0.50000000000E+03  0.00000000000E+00 0. -1.
        -11   -1    0    0    0    0 -0.00000000000E+00 -0.00000000000E+00 -0.50000000000E+03  0.50000000000E+03  0.00000000000E+00 0.  1.
          5    1    1    2  501    0 -0.15329937193E+03  0.15136225199E+03  0.45118364469E+03  0.50000000000E+03  0.47000000000E+01 0. -1.
         -5    1    1    2    0  501  0.15329937193E+03 -0.15136225199E+03 -0.45118364469E+03  0.50000000000E+03  0.47000000000E+01 0.  1.
</event>
<event>
 4    1  0.4903958E-004  0.1000000E+04  0.7546771E-02  0.8684367E-01
         11   -1    0    0    0    0  0.00000000000E+00  0.00000000000E+00  0.50000000000E+03  0.50000000000E+03  0.00000000000E+00 0. -1.
        -11   -1    0    0    0    0 -0.00000000000E+00 -0.00000000000E+00 -0.50000000000E+03  0.50000000000E+03  0.00000000000E+00 0.  1.
          5    1    1    2  501    0 -0.37618446477E+03  0.27686754565E+03  0.17834663056E+03  0.50000000000E+03  0.47000000000E+01 0. -1.
         -5    1    1    2    0  501  0.37618446477E+03 -0.27686754565E+03 -0.17834663056E+03  0.50000000000E+03  0.47000000000E+01 0.  1.
</event>
<event>
 4    1  0.4903958E-004  0.1000000E+04  0.7546771E-02  0.8684367E-01
         11   -1    0    0    0    0  0.00000000000E+00  0.00000000000E+00  0.50000000000E+03  0.50000000000E+03  0.00000000000E+00 0. -1.
        -11   -1    0    0    0    0 -0.00000000000E+00 -0.00000000000E+00 -0.50000000000E+03  0.50000000000E+03  0.00000000000E+00 0.  1.
          5    1    1    2  501    0 -0.20527885792E+03  0.45176389904E+03  0.61219931528E+02  0.50000000000E+03  0.47000000000E+01 0. -1.
         -5    1    1    2    0  501  0.20527885792E+03 -0.45176389904E+03 -0.61219931528E+02  0.50000000000E+03  0.47000000000E+01 0.  1.
</event>
<event>
 4    1  0.4903958E-004  0.1000000E+04  0.7546771E-02  0.8684367E-01
         11   -1    0    0    0    0  0.00000000000E+00  0.00000000000E+00  0.50000000000E+03  0.50000000000E+03  0.00000000000E+00 0. -1.
        -11   -1    0    0    0    0 -0.00000000000E+00 -0.00000000000E+00 -0.50000000000E+03  0.50000000000E+03  0.00000000000E+00 0.  1.
          5    1    1    2  501    0 -0.28847830862E+02 -0.35292041482E+03  0.35297718546E+03  0.50000000000E+03  0.47000000000E+01 0. -1.
         -5    1    1    2    0  501  0.28847830862E+02  0.35292041482E+03 -0.35297718546E+03  0.50000000000E+03  0.47000000000E+01 0.  1.
</event>
<event>
 4    1  0.4903958E-004  0.1000000E+04  0.7546771E-02  0.8684367E-01
         11   -1    0    0    0    0  0.00000000000E+00  0.00000000000E+00  0.50000000000E+03  0.50000000000E+03  0.00000000000E+00 0. -1.
        -11   -1    0    0    0    0 -0.00000000000E+00 -0.00000000000E+00 -0.50000000000E+03  0.50000000000E+03  0.00000000000E+00 0.  1.
          5    1    1    2  501    0 -0.47958146298E+03  0.13931386038E+03  0.23899344536E+02  0.50000000000E+03  0.47000000000E+01 0. -1.
         -5    1    1    2    0  501  0.47958146298E+03 -0.13931386038E+03 -0.23899344536E+02  0.50000000000E+03  0.47000000000E+01 0.  1.
</event>
<event>
 4    1  0.4903958E-004  0.1000000E+04  0.7546771E-02  0.8684367E-01
         11   -1    0    0    0    0  0.00000000000E+00  0.00000000000E+00  0.50000000000E+03  0.50000000000E+03  0.00000000000E+00 0. -1.
        -11   -1    0    0    0    0 -0.00000000000E+00 -0.00000000000E+00 -0.50000000000E+03  0.50000000000E+03  0.00000000000E+00 0.  1.
          5    1    1    2  501    0 -0.11288182522E+03  0.34367497052E+02  0.48585438012E+03  0.50000000000E+03  0.47000000000E+01 0. -1.
         -5    1    1    2    0  501  0.11288182522E+03 -0.34367497052E+02 -0.48585438012E+03  0.50000000000E+03  0.47000000000E+01 0.  1.
</event>
<event>
 4    1  0.4903958E-004  0.1000000E+04  0.7546771E-02  0.8684367E-01
         11   -1    0    0    0    0  0.00000000000E+00  0.00000000000E+00  0.50000000000E+03  0.50000000000E+03  0.00000000000E+00 0. -1.
        -11   -1    0    0    0    0 -0.00000000000E+00 -0.00000000000E+00 -0.50000000000E+03  0.50000000000E+03  0.00000000000E+00 0.  1.
          5    1    1    2  501    0 -0.37455165915E+03  0.15405619953E+03  0.29318194354E+03  0.50000000000E+03  0.47000000000E+01 0. -1.
         -5    1    1    2    0  501  0.37455165915E+03 -0.15405619953E+03 -0.29318194354E+03  0.50000000000E+03  0.47000000000E+01 0.  1.
</event>
<event>
 4    1  0.4903958E-004  0.1000000E+04  0.7546771E-02  0.8684367E-01
         11   -1    0    0    0    0  0.00000000000E+00  0.00000000000E+00  0.50000000000E+03  0.50000000000E+03  0.00000000000E+00 0. -1.
        -11   -1    0    0    0    0 -0.00000000000E+00 -0.00000000000E+00 -0.50000000000E+03  0.50000000000E+03  0.00000000000E+00 0.  1.
          5    1    1    2  501    0  0.30904235908E+03  0.38394160195E+03 -0.84021286487E+02  0.50000000000E+03  0.47000000000E+01 0. -1.
         -5    1    1    2    0  501 -0.30904235908E+03 -0.38394160195E+03  0.84021286487E+02  0.50000000000E+03  0.47000000000E+01 0.  1.
</event>
<event>
 4    1  0.4903958E-004  0.1000000E+04  0.7546771E-02  0.8684367E-01
         11   -1    0    0    0    0  0.00000000000E+00  0.00000000000E+00  0.50000000000E+03  0.50000000000E+03  0.00000000000E+00 0. -1.
        -11   -1    0    0    0    0 -0.00000000000E+00 -0.00000000000E+00 -0.50000000000E+03  0.50000000000E+03  0.00000000000E+00 0.  1.
          5    1    1    2  501    0 -0.30320836756E+03  0.34480002485E+03 -0.19787758514E+03  0.50000000000E+03  0.47000000000E+01 0. -1.
         -5    1    1    2    0  501  0.30320836756E+03 -0.34480002485E+03  0.19787758514E+03  0.50000000000E+03  0.47000000000E+01 0.  1.
</event>
<event>
 4    1  0.4903958E-004  0.1000000E+04  0.7546771E-02  0.8684367E-01
         11   -1    0    0    0    0  0.00000000000E+00  0.00000000000E+00  0.50000000000E+03  0.50000000000E+03  0.00000000000E+00 0. -1.
        -11   -1    0    0    0    0 -0.00000000000E+00 -0.00000000000E+00 -0.50000000000E+03  0.50000000000E+03  0.00000000000E+00 0.  1.
          5    1    1    2  501    0  0.42316910010E+02 -0.32142501292E+03 -0.38062205689E+03  0.50000000000E+03  0.47000000000E+01 0. -1.
         -5    1    1    2    0  501 -0.42316910010E+02  0.32142501292E+03  0.38062205689E+03  0.50000000000E+03  0.47000000000E+01 0.  1.
</event>
<event>
 4    1  0.4903958E-004  0.1000000E+04  0.7546771E-02  0.8684367E-01
         11   -1    0    0    0    0  0.00000000000E+00  0.00000000000E+00  0.50000000000E+03  0.50000000000E+03  0.00000000000E+00 0. -1.
        -11   -1    0    0    0    0 -0.00000000000E+00 -0.00000000000E+00 -0.50000000000E+03  0.50000000000E+03  0.00000000000E+00 0.  1.
          5    1    1    2  501    0 -0.27459807531E+03  0.41483521484E+03 -0.49855306259E+02  0.50000000000E+03  0.47000000000E+01 0.  1.
         -5    1    1    2    0  501  0.27459807531E+03 -0.41483521484E+03  0.49855306259E+02  0.50000000000E+03  0.47000000000E+01 0. -1.
</event>
<event>
 4    1  0.4903958E-004  0.1000000E+04  0.7546771E-02  0.8684367E-01
         11   -1    0    0    0    0  0.00000000000E+00  0.00000000000E+00  0.50000000000E+03  0.50000000000E+03  0.00000000000E+00 0. -1.
        -11   -1    0    0    0    0 -0.00000000000E+00 -0.00000000000E+00 -0.50000000000E+03  0.50000000000E+03  0.00000000000E+00 0.  1.
          5    1    1    2  501    0  0.42167897635E+03  0.11652557336E+03  0.24204656920E+03  0.50000000000E+03  0.47000000000E+01 0. -1.
         -5    1    1    2    0  501 -0.42167897635E+03 -0.11652557336E+03 -0.24204656920E+03  0.50000000000E+03  0.47000000000E+01 0.  1.
</event>
<event>
 4    1  0.4903958E-004  0.1000000E+04  0.7546771E-02  0.8684367E-01
         11   -1    0    0    0    0  0.00000000000E+00  0.00000000000E+00  0.50000000000E+03  0.50000000000E+03  0.00000000000E+00 0. -1.
        -11   -1    0    0    0    0 -0.00000000000E+00 -0.00000000000E+00 -0.50000000000E+03  0.50000000000E+03  0.00000000000E+00 0.  1.
          5    1    1    2  501    0  0.20724996008E+03 -0.44801551512E+03  0.79419533229E+02  0.50000000000E+03  0.47000000000E+01 0. -1.
         -5    1    1    2    0  501 -0.20724996008E+03  0.44801551512E+03 -0.79419533229E+02  0.50000000000E+03  0.47000000000E+01 0.  1.
</event>
<event>
 4    1  0.4903958E-004  0.1000000E+04  0.7546771E-02  0.8684367E-01
         11   -1    0    0    0    0  0.00000000000E+00  0.00000000000E+00  0.50000000000E+03  0.50000000000E+03  0.00000000000E+00 0. -1.
        -11   -1    0    0    0    0 -0.00000000000E+00 -0.00000000000E+00 -0.50000000000E+03  0.50000000000E+03  0.00000000000E+00 0.  1.
          5    1    1    2  501    0 -0.28099574793E+03 -0.12226711156E+03  0.39505702510E+03  0.50000000000E+03  0.47000000000E+01 0. -1.
         -5    1    1    2    0  501  0.28099574793E+03  0.12226711156E+03 -0.39505702510E+03  0.50000000000E+03  0.47000000000E+01 0.  1.
</event>
<event>
 4    1  0.4903958E-004  0.1000000E+04  0.7546771E-02  0.8684367E-01
         11   -1    0    0    0    0  0.00000000000E+00  0.00000000000E+00  0.50000000000E+03  0.50000000000E+03  0.00000000000E+00 0. -1.
        -11   -1    0    0    0    0 -0.00000000000E+00 -0.00000000000E+00 -0.50000000000E+03  0.50000000000E+03  0.00000000000E+00 0.  1.
          5    1    1    2  501    0  0.41880605137E+03  0.14492026603E+03  0.23146817888E+03  0.50000000000E+03  0.47000000000E+01 0. -1.
         -5    1    1    2    0  501 -0.41880605137E+03 -0.14492026603E+03 -0.23146817888E+03  0.50000000000E+03  0.47000000000E+01 0.  1.
</event>
<event>
 4    1  0.4903958E-004  0.1000000E+04  0.7546771E-02  0.8684367E-01
         11   -1    0    0    0    0  0.00000000000E+00  0.00000000000E+00  0.50000000000E+03  0.50000000000E+03  0.00000000000E+00 0.  1.
        -11   -1    0    0    0    0 -0.00000000000E+00 -0.00000000000E+00 -0.50000000000E+03  0.50000000000E+03  0.00000000000E+00 0. -1.
          5    1    1    2  501    0  0.23796861389E+03 -0.95825448782E+02  0.42914604993E+03  0.50000000000E+03  0.47000000000E+01 0.  1.
         -5    1    1    2    0  501 -0.23796861389E+03  0.95825448782E+02 -0.42914604993E+03  0.50000000000E+03  0.47000000000E+01 0. -1.
</event>
<event>
 4    1  0.4903958E-004  0.1000000E+04  0.7546771E-02  0.8684367E-01
         11   -1    0    0    0    0  0.00000000000E+00  0.00000000000E+00  0.50000000000E+03  0.50000000000E+03  0.00000000000E+00 0.  1.
        -11   -1    0    0    0    0 -0.00000000000E+00 -0.00000000000E+00 -0.50000000000E+03  0.50000000000E+03  0.00000000000E+00 0. -1.
          5    1    1    2  501    0  0.25668885479E+02  0.27837286748E+03  0.41452088605E+03  0.50000000000E+03  0.47000000000E+01 0.  1.
         -5    1    1    2    0  501 -0.25668885479E+02 -0.27837286748E+03 -0.41452088605E+03  0.50000000000E+03  0.47000000000E+01 0. -1.
</event>
<event>
 4    1  0.4903958E-004  0.1000000E+04  0.7546771E-02  0.8684367E-01
         11   -1    0    0    0    0  0.00000000000E+00  0.00000000000E+00  0.50000000000E+03  0.50000000000E+03  0.00000000000E+00 0. -1.
        -11   -1    0    0    0    0 -0.00000000000E+00 -0.00000000000E+00 -0.50000000000E+03  0.50000000000E+03  0.00000000000E+00 0.  1.
          5    1    1    2  501    0 -0.49160491023E+03  0.15418067140E+01  0.91105131960E+02  0.50000000000E+03  0.47000000000E+01 0. -1.
         -5    1    1    2    0  501  0.49160491023E+03 -0.15418067140E+01 -0.91105131960E+02  0.50000000000E+03  0.47000000000E+01 0.  1.
</event>
<event>
 4    1  0.4903958E-004  0.1000000E+04  0.7546771E-02  0.8684367E-01
         11   -1    0    0    0    0  0.00000000000E+00  0.00000000000E+00  0.50000000000E+03  0.50000000000E+03  0.00000000000E+00 0.  1.
        -11   -1    0    0    0    0 -0.00000000000E+00 -0.00000000000E+00 -0.50000000000E+03  0.50000000000E+03  0.00000000000E+00 0. -1.
          5    1    1    2  501    0  0.14634549806E+03 -0.16666653904E+03  0.44808835062E+03  0.50000000000E+03  0.47000000000E+01 0.  1.
         -5    1    1    2    0  501 -0.14634549806E+03  0.16666653904E+03 -0.44808835062E+03  0.50000000000E+03  0.47000000000E+01 0. -1.
</event>
<event>
 4    1  0.4903958E-004  0.1000000E+04  0.7546771E-02  0.8684367E-01
         11   -1    0    0    0    0  0.00000000000E+00  0.00000000000E+00  0.50000000000E+03  0.50000000000E+03  0.00000000000E+00 0. -1.
        -11   -1    0    0    0    0 -0.00000000000E+00 -0.00000000000E+00 -0.50000000000E+03  0.50000000000E+03  0.00000000000E+00 0.  1.
          5    1    1    2  501    0  0.40345016822E+03 -0.15426677256E+03  0.25180872630E+03  0.50000000000E+03  0.47000000000E+01 0. -1.
         -5    1    1    2    0  501 -0.40345016822E+03  0.15426677256E+03 -0.25180872630E+03  0.50000000000E+03  0.47000000000E+01 0.  1.
</event>
<event>
 4    1  0.4903958E-004  0.1000000E+04  0.7546771E-02  0.8684367E-01
         11   -1    0    0    0    0  0.00000000000E+00  0.00000000000E+00  0.50000000000E+03  0.50000000000E+03  0.00000000000E+00 0. -1.
        -11   -1    0    0    0    0 -0.00000000000E+00 -0.00000000000E+00 -0.50000000000E+03  0.50000000000E+03  0.00000000000E+00 0.  1.
          5    1    1    2  501    0 -0.37241119640E+03 -0.15341376819E+03  0.29622968542E+03  0.50000000000E+03  0.47000000000E+01 0. -1.
         -5    1    1    2    0  501  0.37241119640E+03  0.15341376819E+03 -0.29622968542E+03  0.50000000000E+03  0.47000000000E+01 0.  1.
</event>
<event>
 4    1  0.4903958E-004  0.1000000E+04  0.7546771E-02  0.8684367E-01
         11   -1    0    0    0    0  0.00000000000E+00  0.00000000000E+00  0.50000000000E+03  0.50000000000E+03  0.00000000000E+00 0. -1.
        -11   -1    0    0    0    0 -0.00000000000E+00 -0.00000000000E+00 -0.50000000000E+03  0.50000000000E+03  0.00000000000E+00 0.  1.
          5    1    1    2  501    0  0.38770135596E+03 -0.67466056513E+02  0.30840541468E+03  0.50000000000E+03  0.47000000000E+01 0. -1.
         -5    1    1    2    0  501 -0.38770135596E+03  0.67466056513E+02 -0.30840541468E+03  0.50000000000E+03  0.47000000000E+01 0.  1.
</event>
<event>
 4    1  0.4903958E-004  0.1000000E+04  0.7546771E-02  0.8684367E-01
         11   -1    0    0    0    0  0.00000000000E+00  0.00000000000E+00  0.50000000000E+03  0.50000000000E+03  0.00000000000E+00 0.  1.
        -11   -1    0    0    0    0 -0.00000000000E+00 -0.00000000000E+00 -0.50000000000E+03  0.50000000000E+03  0.00000000000E+00 0. -1.
          5    1    1    2  501    0 -0.24965888902E+03  0.30389490400E+03  0.30870088509E+03  0.50000000000E+03  0.47000000000E+01 0.  1.
         -5    1    1    2    0  501  0.24965888902E+03 -0.30389490400E+03 -0.30870088509E+03  0.50000000000E+03  0.47000000000E+01 0. -1.
</event>
<event>
 4    1  0.4903958E-004  0.1000000E+04  0.7546771E-02  0.8684367E-01
         11   -1    0    0    0    0  0.00000000000E+00  0.00000000000E+00  0.50000000000E+03  0.50000000000E+03  0.00000000000E+00 0. -1.
        -11   -1    0    0    0    0 -0.00000000000E+00 -0.00000000000E+00 -0.50000000000E+03  0.50000000000E+03  0.00000000000E+00 0.  1.
          5    1    1    2  501    0  0.39518408550E+03  0.22548859004E+03  0.20727359776E+03  0.50000000000E+03  0.47000000000E+01 0. -1.
         -5    1    1    2    0  501 -0.39518408550E+03 -0.22548859004E+03 -0.20727359776E+03  0.50000000000E+03  0.47000000000E+01 0.  1.
</event>
<event>
 4    1  0.4903958E-004  0.1000000E+04  0.7546771E-02  0.8684367E-01
         11   -1    0    0    0    0  0.00000000000E+00  0.00000000000E+00  0.50000000000E+03  0.50000000000E+03  0.00000000000E+00 0. -1.
        -11   -1    0    0    0    0 -0.00000000000E+00 -0.00000000000E+00 -0.50000000000E+03  0.50000000000E+03  0.00000000000E+00 0.  1.
          5    1    1    2  501    0  0.12494321507E+02 -0.23463506894E+03  0.44132548799E+03  0.50000000000E+03  0.47000000000E+01 0. -1.
         -5    1    1    2    0  501 -0.12494321507E+02  0.23463506894E+03 -0.44132548799E+03  0.50000000000E+03  0.47000000000E+01 0.  1.
</event>
<event>
 4    1  0.4903958E-004  0.1000000E+04  0.7546771E-02  0.8684367E-01
         11   -1    0    0    0    0  0.00000000000E+00  0.00000000000E+00  0.50000000000E+03  0.50000000000E+03  0.00000000000E+00 0. -1.
        -11   -1    0    0    0    0 -0.00000000000E+00 -0.00000000000E+00 -0.50000000000E+03  0.50000000000E+03  0.00000000000E+00 0.  1.
          5    1    1    2  501    0 -0.10320374399E+03 -0.42273175067E+03  0.24622096621E+03  0.50000000000E+03  0.47000000000E+01 0. -1.
         -5    1    1    2    0  501  0.10320374399E+03  0.42273175067E+03 -0.24622096621E+03  0.50000000000E+03  0.47000000000E+01 0.  1.
</event>
<event>
 4    1  0.4903958E-004  0.1000000E+04  0.7546771E-02  0.8684367E-01
         11   -1    0    0    0    0  0.00000000000E+00  0.00000000000E+00  0.50000000000E+03  0.50000000000E+03  0.00000000000E+00 0.  1.
        -11   -1    0    0    0    0 -0.00000000000E+00 -0.00000000000E+00 -0.50000000000E+03  0.50000000000E+03  0.00000000000E+00 0. -1.
          5    1    1    2  501    0  0.26264369099E+03  0.39378409100E+03 -0.16102885226E+03  0.50000000000E+03  0.47000000000E+01 0.  1.
         -5    1    1    2    0  501 -0.26264369099E+03 -0.39378409100E+03  0.16102885226E+03  0.50000000000E+03  0.47000000000E+01 0. -1.
</event>
<event>
 4    1  0.4903958E-004  0.1000000E+04  0.7546771E-02  0.8684367E-01
         11   -1    0    0    0    0  0.00000000000E+00  0.00000000000E+00  0.50000000000E+03  0.50000000000E+03  0.00000000000E+00 0. -1.
        -11   -1    0    0    0    0 -0.00000000000E+00 -0.00000000000E+00 -0.50000000000E+03  0.50000000000E+03  0.00000000000E+00 0.  1.
          5    1    1    2  501    0  0.46755308963E+03 -0.40716374618E+02  0.17237805898E+03  0.50000000000E+03  0.47000000000E+01 0. -1.
         -5    1    1    2    0  501 -0.46755308963E+03  0.40716374618E+02 -0.17237805898E+03  0.50000000000E+03  0.47000000000E+01 0.  1.
</event>
<event>
 4    1  0.4903958E-004  0.1000000E+04  0.7546771E-02  0.8684367E-01
         11   -1    0    0    0    0  0.00000000000E+00  0.00000000000E+00  0.50000000000E+03  0.50000000000E+03  0.00000000000E+00 0. -1.
        -11   -1    0    0    0    0 -0.00000000000E+00 -0.00000000000E+00 -0.50000000000E+03  0.50000000000E+03  0.00000000000E+00 0.  1.
          5    1    1    2  501    0 -0.44475539384E+03 -0.24087276782E+02  0.22713509800E+03  0.50000000000E+03  0.47000000000E+01 0. -1.
         -5    1    1    2    0  501  0.44475539384E+03  0.24087276782E+02 -0.22713509800E+03  0.50000000000E+03  0.47000000000E+01 0.  1.
</event>
<event>
 4    1  0.4903958E-004  0.1000000E+04  0.7546771E-02  0.8684367E-01
         11   -1    0    0    0    0  0.00000000000E+00  0.00000000000E+00  0.50000000000E+03  0.50000000000E+03  0.00000000000E+00 0. -1.
        -11   -1    0    0    0    0 -0.00000000000E+00 -0.00000000000E+00 -0.50000000000E+03  0.50000000000E+03  0.00000000000E+00 0.  1.
          5    1    1    2  501    0  0.35404100117E+03  0.18533141571E+03  0.30047486724E+03  0.50000000000E+03  0.47000000000E+01 0. -1.
         -5    1    1    2    0  501 -0.35404100117E+03 -0.18533141571E+03 -0.30047486724E+03  0.50000000000E+03  0.47000000000E+01 0.  1.
</event>
<event>
 4    1  0.4903958E-004  0.1000000E+04  0.7546771E-02  0.8684367E-01
         11   -1    0    0    0    0  0.00000000000E+00  0.00000000000E+00  0.50000000000E+03  0.50000000000E+03  0.00000000000E+00 0. -1.
        -11   -1    0    0    0    0 -0.00000000000E+00 -0.00000000000E+00 -0.50000000000E+03  0.50000000000E+03  0.00000000000E+00 0.  1.
          5    1    1    2  501    0 -0.28541099469E+03 -0.34700518391E+03  0.21933051873E+03  0.50000000000E+03  0.47000000000E+01 0. -1.
         -5    1    1    2    0  501  0.28541099469E+03  0.34700518391E+03 -0.21933051873E+03  0.50000000000E+03  0.47000000000E+01 0.  1.
</event>
<event>
 4    1  0.4903958E-004  0.1000000E+04  0.7546771E-02  0.8684367E-01
         11   -1    0    0    0    0  0.00000000000E+00  0.00000000000E+00  0.50000000000E+03  0.50000000000E+03  0.00000000000E+00 0. -1.
        -11   -1    0    0    0    0 -0.00000000000E+00 -0.00000000000E+00 -0.50000000000E+03  0.50000000000E+03  0.00000000000E+00 0.  1.
          5    1    1    2  501    0 -0.40820164443E+02 -0.43764518894E+03  0.23828200262E+03  0.50000000000E+03  0.47000000000E+01 0. -1.
         -5    1    1    2    0  501  0.40820164443E+02  0.43764518894E+03 -0.23828200262E+03  0.50000000000E+03  0.47000000000E+01 0.  1.
</event>
<event>
 4    1  0.4903958E-004  0.1000000E+04  0.7546771E-02  0.8684367E-01
         11   -1    0    0    0    0  0.00000000000E+00  0.00000000000E+00  0.50000000000E+03  0.50000000000E+03  0.00000000000E+00 0. -1.
        -11   -1    0    0    0    0 -0.00000000000E+00 -0.00000000000E+00 -0.50000000000E+03  0.50000000000E+03  0.00000000000E+00 0.  1.
          5    1    1    2  501    0 -0.13702373327E+03 -0.29108666955E+03  0.38271524314E+03  0.50000000000E+03  0.47000000000E+01 0. -1.
         -5    1    1    2    0  501  0.13702373327E+03  0.29108666955E+03 -0.38271524314E+03  0.50000000000E+03  0.47000000000E+01 0.  1.
</event>
<event>
 4    1  0.4903958E-004  0.1000000E+04  0.7546771E-02  0.8684367E-01
         11   -1    0    0    0    0  0.00000000000E+00  0.00000000000E+00  0.50000000000E+03  0.50000000000E+03  0.00000000000E+00 0.  1.
        -11   -1    0    0    0    0 -0.00000000000E+00 -0.00000000000E+00 -0.50000000000E+03  0.50000000000E+03  0.00000000000E+00 0. -1.
          5    1    1    2  501    0  0.12232730603E+03 -0.35561019445E+03  0.32947735856E+03  0.50000000000E+03  0.47000000000E+01 0.  1.
         -5    1    1    2    0  501 -0.12232730603E+03  0.35561019445E+03 -0.32947735856E+03  0.50000000000E+03  0.47000000000E+01 0. -1.
</event>
<event>
 4    1  0.4903958E-004  0.1000000E+04  0.7546771E-02  0.8684367E-01
         11   -1    0    0    0    0  0.00000000000E+00  0.00000000000E+00  0.50000000000E+03  0.50000000000E+03  0.00000000000E+00 0. -1.
        -11   -1    0    0    0    0 -0.00000000000E+00 -0.00000000000E+00 -0.50000000000E+03  0.50000000000E+03  0.00000000000E+00 0.  1.
          5    1    1    2  501    0 -0.22662484859E+03  0.27854057424E+03  0.34789975065E+03  0.50000000000E+03  0.47000000000E+01 0. -1.
         -5    1    1    2    0  501  0.22662484859E+03 -0.27854057424E+03 -0.34789975065E+03  0.50000000000E+03  0.47000000000E+01 0.  1.
</event>
<event>
 4    1  0.4903958E-004  0.1000000E+04  0.7546771E-02  0.8684367E-01
         11   -1    0    0    0    0  0.00000000000E+00  0.00000000000E+00  0.50000000000E+03  0.50000000000E+03  0.00000000000E+00 0. -1.
        -11   -1    0    0    0    0 -0.00000000000E+00 -0.00000000000E+00 -0.50000000000E+03  0.50000000000E+03  0.00000000000E+00 0.  1.
          5    1    1    2  501    0  0.46275225305E+03  0.95063964121E+02  0.16371043040E+03  0.50000000000E+03  0.47000000000E+01 0. -1.
         -5    1    1    2    0  501 -0.46275225305E+03 -0.95063964121E+02 -0.16371043040E+03  0.50000000000E+03  0.47000000000E+01 0.  1.
</event>
<event>
 4    1  0.4903958E-004  0.1000000E+04  0.7546771E-02  0.8684367E-01
         11   -1    0    0    0    0  0.00000000000E+00  0.00000000000E+00  0.50000000000E+03  0.50000000000E+03  0.00000000000E+00 0. -1.
        -11   -1    0    0    0    0 -0.00000000000E+00 -0.00000000000E+00 -0.50000000000E+03  0.50000000000E+03  0.00000000000E+00 0.  1.
          5    1    1    2  501    0 -0.37409499562E+03 -0.32943505923E+03  0.38773521837E+02  0.50000000000E+03  0.47000000000E+01 0. -1.
         -5    1    1    2    0  501  0.37409499562E+03  0.32943505923E+03 -0.38773521837E+02  0.50000000000E+03  0.47000000000E+01 0.  1.
</event>
<event>
 4    1  0.4903958E-004  0.1000000E+04  0.7546771E-02  0.8684367E-01
         11   -1    0    0    0    0  0.00000000000E+00  0.00000000000E+00  0.50000000000E+03  0.50000000000E+03  0.00000000000E+00 0. -1.
        -11   -1    0    0    0    0 -0.00000000000E+00 -0.00000000000E+00 -0.50000000000E+03  0.50000000000E+03  0.00000000000E+00 0.  1.
          5    1    1    2  501    0  0.42201218357E+03  0.26687397651E+03  0.25727564627E+02  0.50000000000E+03  0.47000000000E+01 0. -1.
         -5    1    1    2    0  501 -0.42201218357E+03 -0.26687397651E+03 -0.25727564627E+02  0.50000000000E+03  0.47000000000E+01 0.  1.
</event>
<event>
 4    1  0.4903958E-004  0.1000000E+04  0.7546771E-02  0.8684367E-01
         11   -1    0    0    0    0  0.00000000000E+00  0.00000000000E+00  0.50000000000E+03  0.50000000000E+03  0.00000000000E+00 0. -1.
        -11   -1    0    0    0    0 -0.00000000000E+00 -0.00000000000E+00 -0.50000000000E+03  0.50000000000E+03  0.00000000000E+00 0.  1.
          5    1    1    2  501    0  0.44992265675E+02  0.41336514244E+03  0.27763801080E+03  0.50000000000E+03  0.47000000000E+01 0. -1.
         -5    1    1    2    0  501 -0.44992265675E+02 -0.41336514244E+03 -0.27763801080E+03  0.50000000000E+03  0.47000000000E+01 0.  1.
</event>
<event>
 4    1  0.4903958E-004  0.1000000E+04  0.7546771E-02  0.8684367E-01
         11   -1    0    0    0    0  0.00000000000E+00  0.00000000000E+00  0.50000000000E+03  0.50000000000E+03  0.00000000000E+00 0. -1.
        -11   -1    0    0    0    0 -0.00000000000E+00 -0.00000000000E+00 -0.50000000000E+03  0.50000000000E+03  0.00000000000E+00 0.  1.
          5    1    1    2  501    0  0.29176971749E+03  0.23081892324E+03  0.33402240438E+03  0.50000000000E+03  0.47000000000E+01 0. -1.
         -5    1    1    2    0  501 -0.29176971749E+03 -0.23081892324E+03 -0.33402240438E+03  0.50000000000E+03  0.47000000000E+01 0.  1.
</event>
<event>
 4    1  0.4903958E-004  0.1000000E+04  0.7546771E-02  0.8684367E-01
         11   -1    0    0    0    0  0.00000000000E+00  0.00000000000E+00  0.50000000000E+03  0.50000000000E+03  0.00000000000E+00 0. -1.
        -11   -1    0    0    0    0 -0.00000000000E+00 -0.00000000000E+00 -0.50000000000E+03  0.50000000000E+03  0.00000000000E+00 0.  1.
          5    1    1    2  501    0  0.40665505661E+03  0.13464199662E+03  0.25783930593E+03  0.50000000000E+03  0.47000000000E+01 0. -1.
         -5    1    1    2    0  501 -0.40665505661E+03 -0.13464199662E+03 -0.25783930593E+03  0.50000000000E+03  0.47000000000E+01 0.  1.
</event>
<event>
 4    1  0.4903958E-004  0.1000000E+04  0.7546771E-02  0.8684367E-01
         11   -1    0    0    0    0  0.00000000000E+00  0.00000000000E+00  0.50000000000E+03  0.50000000000E+03  0.00000000000E+00 0.  1.
        -11   -1    0    0    0    0 -0.00000000000E+00 -0.00000000000E+00 -0.50000000000E+03  0.50000000000E+03  0.00000000000E+00 0. -1.
          5    1    1    2  501    0 -0.18783554671E+03 -0.25526955758E+03  0.38669519051E+03  0.50000000000E+03  0.47000000000E+01 0.  1.
         -5    1    1    2    0  501  0.18783554671E+03  0.25526955758E+03 -0.38669519051E+03  0.50000000000E+03  0.47000000000E+01 0. -1.
</event>
<event>
 4    1  0.4903958E-004  0.1000000E+04  0.7546771E-02  0.8684367E-01
         11   -1    0    0    0    0  0.00000000000E+00  0.00000000000E+00  0.50000000000E+03  0.50000000000E+03  0.00000000000E+00 0.  1.
        -11   -1    0    0    0    0 -0.00000000000E+00 -0.00000000000E+00 -0.50000000000E+03  0.50000000000E+03  0.00000000000E+00 0. -1.
          5    1    1    2  501    0  0.34622252239E+03 -0.96920282715E+02  0.34743968367E+03  0.50000000000E+03  0.47000000000E+01 0.  1.
         -5    1    1    2    0  501 -0.34622252239E+03  0.96920282715E+02 -0.34743968367E+03  0.50000000000E+03  0.47000000000E+01 0. -1.
</event>
<event>
 4    1  0.4903958E-004  0.1000000E+04  0.7546771E-02  0.8684367E-01
         11   -1    0    0    0    0  0.00000000000E+00  0.00000000000E+00  0.50000000000E+03  0.50000000000E+03  0.00000000000E+00 0.  1.
        -11   -1    0    0    0    0 -0.00000000000E+00 -0.00000000000E+00 -0.50000000000E+03  0.50000000000E+03  0.00000000000E+00 0. -1.
          5    1    1    2  501    0 -0.46669834499E+03 -0.79107627799E+01  0.17918701017E+03  0.50000000000E+03  0.47000000000E+01 0.  1.
         -5    1    1    2    0  501  0.46669834499E+03  0.79107627799E+01 -0.17918701017E+03  0.50000000000E+03  0.47000000000E+01 0. -1.
</event>
<event>
 4    1  0.4903958E-004  0.1000000E+04  0.7546771E-02  0.8684367E-01
         11   -1    0    0    0    0  0.00000000000E+00  0.00000000000E+00  0.50000000000E+03  0.50000000000E+03  0.00000000000E+00 0.  1.
        -11   -1    0    0    0    0 -0.00000000000E+00 -0.00000000000E+00 -0.50000000000E+03  0.50000000000E+03  0.00000000000E+00 0. -1.
          5    1    1    2  501    0  0.27498674991E+03 -0.41219632152E+03 -0.66741215929E+02  0.50000000000E+03  0.47000000000E+01 0.  1.
         -5    1    1    2    0  501 -0.27498674991E+03  0.41219632152E+03  0.66741215929E+02  0.50000000000E+03  0.47000000000E+01 0. -1.
</event>
<event>
 4    1  0.4903958E-004  0.1000000E+04  0.7546771E-02  0.8684367E-01
         11   -1    0    0    0    0  0.00000000000E+00  0.00000000000E+00  0.50000000000E+03  0.50000000000E+03  0.00000000000E+00 0. -1.
        -11   -1    0    0    0    0 -0.00000000000E+00 -0.00000000000E+00 -0.50000000000E+03  0.50000000000E+03  0.00000000000E+00 0.  1.
          5    1    1    2  501    0  0.26392099233E+03  0.40813709467E+03 -0.11725072181E+03  0.50000000000E+03  0.47000000000E+01 0. -1.
         -5    1    1    2    0  501 -0.26392099233E+03 -0.40813709467E+03  0.11725072181E+03  0.50000000000E+03  0.47000000000E+01 0.  1.
</event>
<event>
 4    1  0.4903958E-004  0.1000000E+04  0.7546771E-02  0.8684367E-01
         11   -1    0    0    0    0  0.00000000000E+00  0.00000000000E+00  0.50000000000E+03  0.50000000000E+03  0.00000000000E+00 0.  1.
        -11   -1    0    0    0    0 -0.00000000000E+00 -0.00000000000E+00 -0.50000000000E+03  0.50000000000E+03  0.00000000000E+00 0. -1.
          5    1    1    2  501    0  0.47976260784E+03  0.12380052546E+03  0.66926676391E+02  0.50000000000E+03  0.47000000000E+01 0.  1.
         -5    1    1    2    0  501 -0.47976260784E+03 -0.12380052546E+03 -0.66926676391E+02  0.50000000000E+03  0.47000000000E+01 0. -1.
</event>
<event>
 4    1  0.4903958E-004  0.1000000E+04  0.7546771E-02  0.8684367E-01
         11   -1    0    0    0    0  0.00000000000E+00  0.00000000000E+00  0.50000000000E+03  0.50000000000E+03  0.00000000000E+00 0. -1.
        -11   -1    0    0    0    0 -0.00000000000E+00 -0.00000000000E+00 -0.50000000000E+03  0.50000000000E+03  0.00000000000E+00 0.  1.
          5    1    1    2  501    0 -0.42162539490E+03 -0.24197330346E+03  0.11687111184E+03  0.50000000000E+03  0.47000000000E+01 0. -1.
         -5    1    1    2    0  501  0.42162539490E+03  0.24197330346E+03 -0.11687111184E+03  0.50000000000E+03  0.47000000000E+01 0.  1.
</event>
<event>
 4    1  0.4903958E-004  0.1000000E+04  0.7546771E-02  0.8684367E-01
         11   -1    0    0    0    0  0.00000000000E+00  0.00000000000E+00  0.50000000000E+03  0.50000000000E+03  0.00000000000E+00 0.  1.
        -11   -1    0    0    0    0 -0.00000000000E+00 -0.00000000000E+00 -0.50000000000E+03  0.50000000000E+03  0.00000000000E+00 0. -1.
          5    1    1    2  501    0  0.26188100541E+03  0.32526337520E+03  0.27495451581E+03  0.50000000000E+03  0.47000000000E+01 0.  1.
         -5    1    1    2    0  501 -0.26188100541E+03 -0.32526337520E+03 -0.27495451581E+03  0.50000000000E+03  0.47000000000E+01 0. -1.
</event>
<event>
 4    1  0.4903958E-004  0.1000000E+04  0.7546771E-02  0.8684367E-01
         11   -1    0    0    0    0  0.00000000000E+00  0.00000000000E+00  0.50000000000E+03  0.50000000000E+03  0.00000000000E+00 0. -1.
        -11   -1    0    0    0    0 -0.00000000000E+00 -0.00000000000E+00 -0.50000000000E+03  0.50000000000E+03  0.00000000000E+00 0.  1.
          5    1    1    2  501    0  0.45569192686E+03 -0.94144578951E+02  0.18291958902E+03  0.50000000000E+03  0.47000000000E+01 0. -1.
         -5    1    1    2    0  501 -0.45569192686E+03  0.94144578951E+02 -0.18291958902E+03  0.50000000000E+03  0.47000000000E+01 0.  1.
</event>
<event>
 4    1  0.4903958E-004  0.1000000E+04  0.7546771E-02  0.8684367E-01
         11   -1    0    0    0    0  0.00000000000E+00  0.00000000000E+00  0.50000000000E+03  0.50000000000E+03  0.00000000000E+00 0.  1.
        -11   -1    0    0    0    0 -0.00000000000E+00 -0.00000000000E+00 -0.50000000000E+03  0.50000000000E+03  0.00000000000E+00 0. -1.
          5    1    1    2  501    0 -0.38315209952E+03 -0.16714480931E+03  0.27428997677E+03  0.50000000000E+03  0.47000000000E+01 0.  1.
         -5    1    1    2    0  501  0.38315209952E+03  0.16714480931E+03 -0.27428997677E+03  0.50000000000E+03  0.47000000000E+01 0. -1.
</event>
<event>
 4    1  0.4903958E-004  0.1000000E+04  0.7546771E-02  0.8684367E-01
         11   -1    0    0    0    0  0.00000000000E+00  0.00000000000E+00  0.50000000000E+03  0.50000000000E+03  0.00000000000E+00 0. -1.
        -11   -1    0    0    0    0 -0.00000000000E+00 -0.00000000000E+00 -0.50000000000E+03  0.50000000000E+03  0.00000000000E+00 0.  1.
          5    1    1    2  501    0  0.25572335712E+03  0.48548499512E+00  0.42963151529E+03  0.50000000000E+03  0.47000000000E+01 0. -1.
         -5    1    1    2    0  501 -0.25572335712E+03 -0.48548499512E+00 -0.42963151529E+03  0.50000000000E+03  0.47000000000E+01 0.  1.
</event>
<event>
 4    1  0.4903958E-004  0.1000000E+04  0.7546771E-02  0.8684367E-01
         11   -1    0    0    0    0  0.00000000000E+00  0.00000000000E+00  0.50000000000E+03  0.50000000000E+03  0.00000000000E+00 0. -1.
        -11   -1    0    0    0    0 -0.00000000000E+00 -0.00000000000E+00 -0.50000000000E+03  0.50000000000E+03  0.00000000000E+00 0.  1.
          5    1    1    2  501    0 -0.56016649307E+02 -0.13692663497E+03  0.47758888349E+03  0.50000000000E+03  0.47000000000E+01 0. -1.
         -5    1    1    2    0  501  0.56016649307E+02  0.13692663497E+03 -0.47758888349E+03  0.50000000000E+03  0.47000000000E+01 0.  1.
</event>
<event>
 4    1  0.4903958E-004  0.1000000E+04  0.7546771E-02  0.8684367E-01
         11   -1    0    0    0    0  0.00000000000E+00  0.00000000000E+00  0.50000000000E+03  0.50000000000E+03  0.00000000000E+00 0. -1.
        -11   -1    0    0    0    0 -0.00000000000E+00 -0.00000000000E+00 -0.50000000000E+03  0.50000000000E+03  0.00000000000E+00 0.  1.
          5    1    1    2  501    0 -0.23512354225E+03  0.20920337918E+03  0.38849552896E+03  0.50000000000E+03  0.47000000000E+01 0. -1.
         -5    1    1    2    0  501  0.23512354225E+03 -0.20920337918E+03 -0.38849552896E+03  0.50000000000E+03  0.47000000000E+01 0.  1.
</event>
<event>
 4    1  0.4903958E-004  0.1000000E+04  0.7546771E-02  0.8684367E-01
         11   -1    0    0    0    0  0.00000000000E+00  0.00000000000E+00  0.50000000000E+03  0.50000000000E+03  0.00000000000E+00 0. -1.
        -11   -1    0    0    0    0 -0.00000000000E+00 -0.00000000000E+00 -0.50000000000E+03  0.50000000000E+03  0.00000000000E+00 0.  1.
          5    1    1    2  501    0  0.56012467666E+02 -0.41986020318E+03  0.26562741434E+03  0.50000000000E+03  0.47000000000E+01 0. -1.
         -5    1    1    2    0  501 -0.56012467666E+02  0.41986020318E+03 -0.26562741434E+03  0.50000000000E+03  0.47000000000E+01 0.  1.
</event>
<event>
 4    1  0.4903958E-004  0.1000000E+04  0.7546771E-02  0.8684367E-01
         11   -1    0    0    0    0  0.00000000000E+00  0.00000000000E+00  0.50000000000E+03  0.50000000000E+03  0.00000000000E+00 0. -1.
        -11   -1    0    0    0    0 -0.00000000000E+00 -0.00000000000E+00 -0.50000000000E+03  0.50000000000E+03  0.00000000000E+00 0.  1.
          5    1    1    2  501    0 -0.24476146719E+03 -0.18835635463E+02  0.43556280031E+03  0.50000000000E+03  0.47000000000E+01 0. -1.
         -5    1    1    2    0  501  0.24476146719E+03  0.18835635463E+02 -0.43556280031E+03  0.50000000000E+03  0.47000000000E+01 0.  1.
</event>
<event>
 4    1  0.4903958E-004  0.1000000E+04  0.7546771E-02  0.8684367E-01
         11   -1    0    0    0    0  0.00000000000E+00  0.00000000000E+00  0.50000000000E+03  0.50000000000E+03  0.00000000000E+00 0. -1.
        -11   -1    0    0    0    0 -0.00000000000E+00 -0.00000000000E+00 -0.50000000000E+03  0.50000000000E+03  0.00000000000E+00 0.  1.
          5    1    1    2  501    0  0.14645633254E+03 -0.36412103346E+03  0.30974881058E+03  0.50000000000E+03  0.47000000000E+01 0. -1.
         -5    1    1    2    0  501 -0.14645633254E+03  0.36412103346E+03 -0.30974881058E+03  0.50000000000E+03  0.47000000000E+01 0.  1.
</event>
<event>
 4    1  0.4903958E-004  0.1000000E+04  0.7546771E-02  0.8684367E-01
         11   -1    0    0    0    0  0.00000000000E+00  0.00000000000E+00  0.50000000000E+03  0.50000000000E+03  0.00000000000E+00 0. -1.
        -11   -1    0    0    0    0 -0.00000000000E+00 -0.00000000000E+00 -0.50000000000E+03  0.50000000000E+03  0.00000000000E+00 0.  1.
          5    1    1    2  501    0  0.36824146350E+03 -0.22748345549E+03  0.25025469434E+03  0.50000000000E+03  0.47000000000E+01 0. -1.
         -5    1    1    2    0  501 -0.36824146350E+03  0.22748345549E+03 -0.25025469434E+03  0.50000000000E+03  0.47000000000E+01 0.  1.
</event>
<event>
 4    1  0.4903958E-004  0.1000000E+04  0.7546771E-02  0.8684367E-01
         11   -1    0    0    0    0  0.00000000000E+00  0.00000000000E+00  0.50000000000E+03  0.50000000000E+03  0.00000000000E+00 0.  1.
        -11   -1    0    0    0    0 -0.00000000000E+00 -0.00000000000E+00 -0.50000000000E+03  0.50000000000E+03  0.00000000000E+00 0. -1.
          5    1    1    2  501    0  0.75251343316E+02  0.46214399102E+03 -0.17532277915E+03  0.50000000000E+03  0.47000000000E+01 0. -1.
         -5    1    1    2    0  501 -0.75251343316E+02 -0.46214399102E+03  0.17532277915E+03  0.50000000000E+03  0.47000000000E+01 0.  1.
</event>
<event>
 4    1  0.4903958E-004  0.1000000E+04  0.7546771E-02  0.8684367E-01
         11   -1    0    0    0    0  0.00000000000E+00  0.00000000000E+00  0.50000000000E+03  0.50000000000E+03  0.00000000000E+00 0. -1.
        -11   -1    0    0    0    0 -0.00000000000E+00 -0.00000000000E+00 -0.50000000000E+03  0.50000000000E+03  0.00000000000E+00 0.  1.
          5    1    1    2  501    0  0.49633735528E+03 -0.29441434294E+01 -0.60153734519E+02  0.50000000000E+03  0.47000000000E+01 0. -1.
         -5    1    1    2    0  501 -0.49633735528E+03  0.29441434294E+01  0.60153734519E+02  0.50000000000E+03  0.47000000000E+01 0.  1.
</event>
<event>
 4    1  0.4903958E-004  0.1000000E+04  0.7546771E-02  0.8684367E-01
         11   -1    0    0    0    0  0.00000000000E+00  0.00000000000E+00  0.50000000000E+03  0.50000000000E+03  0.00000000000E+00 0. -1.
        -11   -1    0    0    0    0 -0.00000000000E+00 -0.00000000000E+00 -0.50000000000E+03  0.50000000000E+03  0.00000000000E+00 0.  1.
          5    1    1    2  501    0 -0.40778801182E+03  0.28826249097E+03 -0.24322494075E+02  0.50000000000E+03  0.47000000000E+01 0. -1.
         -5    1    1    2    0  501  0.40778801182E+03 -0.28826249097E+03  0.24322494075E+02  0.50000000000E+03  0.47000000000E+01 0.  1.
</event>
<event>
 4    1  0.4903958E-004  0.1000000E+04  0.7546771E-02  0.8684367E-01
         11   -1    0    0    0    0  0.00000000000E+00  0.00000000000E+00  0.50000000000E+03  0.50000000000E+03  0.00000000000E+00 0. -1.
        -11   -1    0    0    0    0 -0.00000000000E+00 -0.00000000000E+00 -0.50000000000E+03  0.50000000000E+03  0.00000000000E+00 0.  1.
          5    1    1    2  501    0  0.56035842066E+02 -0.38518756111E+03  0.31379680874E+03  0.50000000000E+03  0.47000000000E+01 0. -1.
         -5    1    1    2    0  501 -0.56035842066E+02  0.38518756111E+03 -0.31379680874E+03  0.50000000000E+03  0.47000000000E+01 0.  1.
</event>
<event>
 4    1  0.4903958E-004  0.1000000E+04  0.7546771E-02  0.8684367E-01
         11   -1    0    0    0    0  0.00000000000E+00  0.00000000000E+00  0.50000000000E+03  0.50000000000E+03  0.00000000000E+00 0. -1.
        -11   -1    0    0    0    0 -0.00000000000E+00 -0.00000000000E+00 -0.50000000000E+03  0.50000000000E+03  0.00000000000E+00 0.  1.
          5    1    1    2  501    0  0.41469345074E+03 -0.19894360445E+03  0.19603238038E+03  0.50000000000E+03  0.47000000000E+01 0. -1.
         -5    1    1    2    0  501 -0.41469345074E+03  0.19894360445E+03 -0.19603238038E+03  0.50000000000E+03  0.47000000000E+01 0.  1.
</event>
<event>
 4    1  0.4903958E-004  0.1000000E+04  0.7546771E-02  0.8684367E-01
         11   -1    0    0    0    0  0.00000000000E+00  0.00000000000E+00  0.50000000000E+03  0.50000000000E+03  0.00000000000E+00 0. -1.
        -11   -1    0    0    0    0 -0.00000000000E+00 -0.00000000000E+00 -0.50000000000E+03  0.50000000000E+03  0.00000000000E+00 0.  1.
          5    1    1    2  501    0  0.23655308724E+03  0.11130104536E+03  0.42618379159E+03  0.50000000000E+03  0.47000000000E+01 0. -1.
         -5    1    1    2    0  501 -0.23655308724E+03 -0.11130104536E+03 -0.42618379159E+03  0.50000000000E+03  0.47000000000E+01 0.  1.
</event>
<event>
 4    1  0.4903958E-004  0.1000000E+04  0.7546771E-02  0.8684367E-01
         11   -1    0    0    0    0  0.00000000000E+00  0.00000000000E+00  0.50000000000E+03  0.50000000000E+03  0.00000000000E+00 0. -1.
        -11   -1    0    0    0    0 -0.00000000000E+00 -0.00000000000E+00 -0.50000000000E+03  0.50000000000E+03  0.00000000000E+00 0.  1.
          5    1    1    2  501    0  0.29963094903E+01  0.80543935477E+02  0.49343855401E+03  0.50000000000E+03  0.47000000000E+01 0. -1.
         -5    1    1    2    0  501 -0.29963094903E+01 -0.80543935477E+02 -0.49343855401E+03  0.50000000000E+03  0.47000000000E+01 0.  1.
</event>
<event>
 4    1  0.4903958E-004  0.1000000E+04  0.7546771E-02  0.8684367E-01
         11   -1    0    0    0    0  0.00000000000E+00  0.00000000000E+00  0.50000000000E+03  0.50000000000E+03  0.00000000000E+00 0. -1.
        -11   -1    0    0    0    0 -0.00000000000E+00 -0.00000000000E+00 -0.50000000000E+03  0.50000000000E+03  0.00000000000E+00 0.  1.
          5    1    1    2  501    0  0.22556013016E+03 -0.37039613193E+02  0.44466684691E+03  0.50000000000E+03  0.47000000000E+01 0. -1.
         -5    1    1    2    0  501 -0.22556013016E+03  0.37039613193E+02 -0.44466684691E+03  0.50000000000E+03  0.47000000000E+01 0.  1.
</event>
<event>
 4    1  0.4903958E-004  0.1000000E+04  0.7546771E-02  0.8684367E-01
         11   -1    0    0    0    0  0.00000000000E+00  0.00000000000E+00  0.50000000000E+03  0.50000000000E+03  0.00000000000E+00 0. -1.
        -11   -1    0    0    0    0 -0.00000000000E+00 -0.00000000000E+00 -0.50000000000E+03  0.50000000000E+03  0.00000000000E+00 0.  1.
          5    1    1    2  501    0  0.24645734967E+03 -0.43467754000E+03 -0.17091548014E+02  0.50000000000E+03  0.47000000000E+01 0. -1.
         -5    1    1    2    0  501 -0.24645734967E+03  0.43467754000E+03  0.17091548014E+02  0.50000000000E+03  0.47000000000E+01 0.  1.
</event>
<event>
 4    1  0.4903958E-004  0.1000000E+04  0.7546771E-02  0.8684367E-01
         11   -1    0    0    0    0  0.00000000000E+00  0.00000000000E+00  0.50000000000E+03  0.50000000000E+03  0.00000000000E+00 0. -1.
        -11   -1    0    0    0    0 -0.00000000000E+00 -0.00000000000E+00 -0.50000000000E+03  0.50000000000E+03  0.00000000000E+00 0.  1.
          5    1    1    2  501    0 -0.25340092550E+03  0.25462336747E+03  0.34775396719E+03  0.50000000000E+03  0.47000000000E+01 0. -1.
         -5    1    1    2    0  501  0.25340092550E+03 -0.25462336747E+03 -0.34775396719E+03  0.50000000000E+03  0.47000000000E+01 0.  1.
</event>
<event>
 4    1  0.4903958E-004  0.1000000E+04  0.7546771E-02  0.8684367E-01
         11   -1    0    0    0    0  0.00000000000E+00  0.00000000000E+00  0.50000000000E+03  0.50000000000E+03  0.00000000000E+00 0.  1.
        -11   -1    0    0    0    0 -0.00000000000E+00 -0.00000000000E+00 -0.50000000000E+03  0.50000000000E+03  0.00000000000E+00 0. -1.
          5    1    1    2  501    0  0.11602672062E+03 -0.47370714761E+03 -0.11007837393E+03  0.50000000000E+03  0.47000000000E+01 0.  1.
         -5    1    1    2    0  501 -0.11602672062E+03  0.47370714761E+03  0.11007837393E+03  0.50000000000E+03  0.47000000000E+01 0. -1.
</event>
<event>
 4    1  0.4903958E-004  0.1000000E+04  0.7546771E-02  0.8684367E-01
         11   -1    0    0    0    0  0.00000000000E+00  0.00000000000E+00  0.50000000000E+03  0.50000000000E+03  0.00000000000E+00 0. -1.
        -11   -1    0    0    0    0 -0.00000000000E+00 -0.00000000000E+00 -0.50000000000E+03  0.50000000000E+03  0.00000000000E+00 0.  1.
          5    1    1    2  501    0  0.33775411522E+03  0.33158566980E+03  0.16109317562E+03  0.50000000000E+03  0.47000000000E+01 0. -1.
         -5    1    1    2    0  501 -0.33775411522E+03 -0.33158566980E+03 -0.16109317562E+03  0.50000000000E+03  0.47000000000E+01 0.  1.
</event>
<event>
 4    1  0.4903958E-004  0.1000000E+04  0.7546771E-02  0.8684367E-01
         11   -1    0    0    0    0  0.00000000000E+00  0.00000000000E+00  0.50000000000E+03  0.50000000000E+03  0.00000000000E+00 0. -1.
        -11   -1    0    0    0    0 -0.00000000000E+00 -0.00000000000E+00 -0.50000000000E+03  0.50000000000E+03  0.00000000000E+00 0.  1.
          5    1    1    2  501    0  0.13591475949E+03 -0.43714297888E+03  0.20102513317E+03  0.50000000000E+03  0.47000000000E+01 0. -1.
         -5    1    1    2    0  501 -0.13591475949E+03  0.43714297888E+03 -0.20102513317E+03  0.50000000000E+03  0.47000000000E+01 0.  1.
</event>
<event>
 4    1  0.4903958E-004  0.1000000E+04  0.7546771E-02  0.8684367E-01
         11   -1    0    0    0    0  0.00000000000E+00  0.00000000000E+00  0.50000000000E+03  0.50000000000E+03  0.00000000000E+00 0. -1.
        -11   -1    0    0    0    0 -0.00000000000E+00 -0.00000000000E+00 -0.50000000000E+03  0.50000000000E+03  0.00000000000E+00 0.  1.
          5    1    1    2  501    0 -0.23786606745E+03 -0.23044878800E+03  0.37455440201E+03  0.50000000000E+03  0.47000000000E+01 0. -1.
         -5    1    1    2    0  501  0.23786606745E+03  0.23044878800E+03 -0.37455440201E+03  0.50000000000E+03  0.47000000000E+01 0.  1.
</event>
<event>
 4    1  0.4903958E-004  0.1000000E+04  0.7546771E-02  0.8684367E-01
         11   -1    0    0    0    0  0.00000000000E+00  0.00000000000E+00  0.50000000000E+03  0.50000000000E+03  0.00000000000E+00 0. -1.
        -11   -1    0    0    0    0 -0.00000000000E+00 -0.00000000000E+00 -0.50000000000E+03  0.50000000000E+03  0.00000000000E+00 0.  1.
          5    1    1    2  501    0 -0.37791621574E+03  0.15217311029E+03  0.28982854998E+03  0.50000000000E+03  0.47000000000E+01 0. -1.
         -5    1    1    2    0  501  0.37791621574E+03 -0.15217311029E+03 -0.28982854998E+03  0.50000000000E+03  0.47000000000E+01 0.  1.
</event>
<event>
 4    1  0.4903958E-004  0.1000000E+04  0.7546771E-02  0.8684367E-01
         11   -1    0    0    0    0  0.00000000000E+00  0.00000000000E+00  0.50000000000E+03  0.50000000000E+03  0.00000000000E+00 0. -1.
        -11   -1    0    0    0    0 -0.00000000000E+00 -0.00000000000E+00 -0.50000000000E+03  0.50000000000E+03  0.00000000000E+00 0.  1.
          5    1    1    2  501    0  0.13719971878E+03  0.32724409719E+02  0.47966994921E+03  0.50000000000E+03  0.47000000000E+01 0. -1.
         -5    1    1    2    0  501 -0.13719971878E+03 -0.32724409719E+02 -0.47966994921E+03  0.50000000000E+03  0.47000000000E+01 0.  1.
</event>
<event>
 4    1  0.4903958E-004  0.1000000E+04  0.7546771E-02  0.8684367E-01
         11   -1    0    0    0    0  0.00000000000E+00  0.00000000000E+00  0.50000000000E+03  0.50000000000E+03  0.00000000000E+00 0.  1.
        -11   -1    0    0    0    0 -0.00000000000E+00 -0.00000000000E+00 -0.50000000000E+03  0.50000000000E+03  0.00000000000E+00 0. -1.
          5    1    1    2  501    0  0.83797181543E+01  0.42134460924E+03  0.26902864269E+03  0.50000000000E+03  0.47000000000E+01 0.  1.
         -5    1    1    2    0  501 -0.83797181543E+01 -0.42134460924E+03 -0.26902864269E+03  0.50000000000E+03  0.47000000000E+01 0. -1.
</event>
<event>
 4    1  0.4903958E-004  0.1000000E+04  0.7546771E-02  0.8684367E-01
         11   -1    0    0    0    0  0.00000000000E+00  0.00000000000E+00  0.50000000000E+03  0.50000000000E+03  0.00000000000E+00 0.  1.
        -11   -1    0    0    0    0 -0.00000000000E+00 -0.00000000000E+00 -0.50000000000E+03  0.50000000000E+03  0.00000000000E+00 0. -1.
          5    1    1    2  501    0 -0.41017847637E+03  0.13131209167E+03 -0.25394617955E+03  0.50000000000E+03  0.47000000000E+01 0.  1.
         -5    1    1    2    0  501  0.41017847637E+03 -0.13131209167E+03  0.25394617955E+03  0.50000000000E+03  0.47000000000E+01 0. -1.
</event>
<event>
 4    1  0.4903958E-004  0.1000000E+04  0.7546771E-02  0.8684367E-01
         11   -1    0    0    0    0  0.00000000000E+00  0.00000000000E+00  0.50000000000E+03  0.50000000000E+03  0.00000000000E+00 0. -1.
        -11   -1    0    0    0    0 -0.00000000000E+00 -0.00000000000E+00 -0.50000000000E+03  0.50000000000E+03  0.00000000000E+00 0.  1.
          5    1    1    2  501    0  0.13335108480E+03  0.66375752331E+02  0.47727314788E+03  0.50000000000E+03  0.47000000000E+01 0. -1.
         -5    1    1    2    0  501 -0.13335108480E+03 -0.66375752331E+02 -0.47727314788E+03  0.50000000000E+03  0.47000000000E+01 0.  1.
</event>
<event>
 4    1  0.4903958E-004  0.1000000E+04  0.7546771E-02  0.8684367E-01
         11   -1    0    0    0    0  0.00000000000E+00  0.00000000000E+00  0.50000000000E+03  0.50000000000E+03  0.00000000000E+00 0. -1.
        -11   -1    0    0    0    0 -0.00000000000E+00 -0.00000000000E+00 -0.50000000000E+03  0.50000000000E+03  0.00000000000E+00 0.  1.
          5    1    1    2  501    0 -0.50100848760E+02  0.28510626858E+03  0.40765454808E+03  0.50000000000E+03  0.47000000000E+01 0. -1.
         -5    1    1    2    0  501  0.50100848760E+02 -0.28510626858E+03 -0.40765454808E+03  0.50000000000E+03  0.47000000000E+01 0.  1.
</event>
<event>
 4    1  0.4903958E-004  0.1000000E+04  0.7546771E-02  0.8684367E-01
         11   -1    0    0    0    0  0.00000000000E+00  0.00000000000E+00  0.50000000000E+03  0.50000000000E+03  0.00000000000E+00 0. -1.
        -11   -1    0    0    0    0 -0.00000000000E+00 -0.00000000000E+00 -0.50000000000E+03  0.50000000000E+03  0.00000000000E+00 0.  1.
          5    1    1    2  501    0  0.22836562814E+03 -0.35395523501E+03  0.26933759762E+03  0.50000000000E+03  0.47000000000E+01 0. -1.
         -5    1    1    2    0  501 -0.22836562814E+03  0.35395523501E+03 -0.26933759762E+03  0.50000000000E+03  0.47000000000E+01 0.  1.
</event>
<event>
 4    1  0.4903958E-004  0.1000000E+04  0.7546771E-02  0.8684367E-01
         11   -1    0    0    0    0  0.00000000000E+00  0.00000000000E+00  0.50000000000E+03  0.50000000000E+03  0.00000000000E+00 0. -1.
        -11   -1    0    0    0    0 -0.00000000000E+00 -0.00000000000E+00 -0.50000000000E+03  0.50000000000E+03  0.00000000000E+00 0.  1.
          5    1    1    2  501    0 -0.43501528274E+03 -0.11662386350E+03  0.21711399826E+03  0.50000000000E+03  0.47000000000E+01 0. -1.
         -5    1    1    2    0  501  0.43501528274E+03  0.11662386350E+03 -0.21711399826E+03  0.50000000000E+03  0.47000000000E+01 0.  1.
</event>
<event>
 4    1  0.4903958E-004  0.1000000E+04  0.7546771E-02  0.8684367E-01
         11   -1    0    0    0    0  0.00000000000E+00  0.00000000000E+00  0.50000000000E+03  0.50000000000E+03  0.00000000000E+00 0.  1.
        -11   -1    0    0    0    0 -0.00000000000E+00 -0.00000000000E+00 -0.50000000000E+03  0.50000000000E+03  0.00000000000E+00 0. -1.
          5    1    1    2  501    0  0.17628593379E+03  0.41107282628E+02  0.46605940701E+03  0.50000000000E+03  0.47000000000E+01 0.  1.
         -5    1    1    2    0  501 -0.17628593379E+03 -0.41107282628E+02 -0.46605940701E+03  0.50000000000E+03  0.47000000000E+01 0. -1.
</event>
<event>
 4    1  0.4903958E-004  0.1000000E+04  0.7546771E-02  0.8684367E-01
         11   -1    0    0    0    0  0.00000000000E+00  0.00000000000E+00  0.50000000000E+03  0.50000000000E+03  0.00000000000E+00 0. -1.
        -11   -1    0    0    0    0 -0.00000000000E+00 -0.00000000000E+00 -0.50000000000E+03  0.50000000000E+03  0.00000000000E+00 0.  1.
          5    1    1    2  501    0  0.35865854049E+03  0.88178638414E+02  0.33699627455E+03  0.50000000000E+03  0.47000000000E+01 0. -1.
         -5    1    1    2    0  501 -0.35865854049E+03 -0.88178638414E+02 -0.33699627455E+03  0.50000000000E+03  0.47000000000E+01 0.  1.
</event>
<event>
 4    1  0.4903958E-004  0.1000000E+04  0.7546771E-02  0.8684367E-01
         11   -1    0    0    0    0  0.00000000000E+00  0.00000000000E+00  0.50000000000E+03  0.50000000000E+03  0.00000000000E+00 0.  1.
        -11   -1    0    0    0    0 -0.00000000000E+00 -0.00000000000E+00 -0.50000000000E+03  0.50000000000E+03  0.00000000000E+00 0. -1.
          5    1    1    2  501    0  0.11745685687E+03  0.16874524196E+03  0.45574865890E+03  0.50000000000E+03  0.47000000000E+01 0.  1.
         -5    1    1    2    0  501 -0.11745685687E+03 -0.16874524196E+03 -0.45574865890E+03  0.50000000000E+03  0.47000000000E+01 0. -1.
</event>
<event>
 4    1  0.4903958E-004  0.1000000E+04  0.7546771E-02  0.8684367E-01
         11   -1    0    0    0    0  0.00000000000E+00  0.00000000000E+00  0.50000000000E+03  0.50000000000E+03  0.00000000000E+00 0.  1.
        -11   -1    0    0    0    0 -0.00000000000E+00 -0.00000000000E+00 -0.50000000000E+03  0.50000000000E+03  0.00000000000E+00 0. -1.
          5    1    1    2  501    0  0.19854143630E+03  0.36099091185E+02  0.45744514828E+03  0.50000000000E+03  0.47000000000E+01 0.  1.
         -5    1    1    2    0  501 -0.19854143630E+03 -0.36099091185E+02 -0.45744514828E+03  0.50000000000E+03  0.47000000000E+01 0. -1.
</event>
<event>
 4    1  0.4903958E-004  0.1000000E+04  0.7546771E-02  0.8684367E-01
         11   -1    0    0    0    0  0.00000000000E+00  0.00000000000E+00  0.50000000000E+03  0.50000000000E+03  0.00000000000E+00 0. -1.
        -11   -1    0    0    0    0 -0.00000000000E+00 -0.00000000000E+00 -0.50000000000E+03  0.50000000000E+03  0.00000000000E+00 0.  1.
          5    1    1    2  501    0 -0.58703205514E+02  0.32872133559E+03  0.37212111898E+03  0.50000000000E+03  0.47000000000E+01 0. -1.
         -5    1    1    2    0  501  0.58703205514E+02 -0.32872133559E+03 -0.37212111898E+03  0.50000000000E+03  0.47000000000E+01 0.  1.
</event>
<event>
 4    1  0.4903958E-004  0.1000000E+04  0.7546771E-02  0.8684367E-01
         11   -1    0    0    0    0  0.00000000000E+00  0.00000000000E+00  0.50000000000E+03  0.50000000000E+03  0.00000000000E+00 0. -1.
        -11   -1    0    0    0    0 -0.00000000000E+00 -0.00000000000E+00 -0.50000000000E+03  0.50000000000E+03  0.00000000000E+00 0.  1.
          5    1    1    2  501    0 -0.26401857892E+03 -0.42019144906E+03 -0.60919997680E+02  0.50000000000E+03  0.47000000000E+01 0. -1.
         -5    1    1    2    0  501  0.26401857892E+03  0.42019144906E+03  0.60919997680E+02  0.50000000000E+03  0.47000000000E+01 0.  1.
</event>
<event>
 4    1  0.4903958E-004  0.1000000E+04  0.7546771E-02  0.8684367E-01
         11   -1    0    0    0    0  0.00000000000E+00  0.00000000000E+00  0.50000000000E+03  0.50000000000E+03  0.00000000000E+00 0. -1.
        -11   -1    0    0    0    0 -0.00000000000E+00 -0.00000000000E+00 -0.50000000000E+03  0.50000000000E+03  0.00000000000E+00 0.  1.
          5    1    1    2  501    0 -0.44765352514E+03  0.22212413750E+03  0.15655636946E+02  0.50000000000E+03  0.47000000000E+01 0. -1.
         -5    1    1    2    0  501  0.44765352514E+03 -0.22212413750E+03 -0.15655636946E+02  0.50000000000E+03  0.47000000000E+01 0.  1.
</event>
<event>
 4    1  0.4903958E-004  0.1000000E+04  0.7546771E-02  0.8684367E-01
         11   -1    0    0    0    0  0.00000000000E+00  0.00000000000E+00  0.50000000000E+03  0.50000000000E+03  0.00000000000E+00 0.  1.
        -11   -1    0    0    0    0 -0.00000000000E+00 -0.00000000000E+00 -0.50000000000E+03  0.50000000000E+03  0.00000000000E+00 0. -1.
          5    1    1    2  501    0 -0.39208159870E+03 -0.22524879525E+02  0.30942294641E+03  0.50000000000E+03  0.47000000000E+01 0.  1.
         -5    1    1    2    0  501  0.39208159870E+03  0.22524879525E+02 -0.30942294641E+03  0.50000000000E+03  0.47000000000E+01 0. -1.
</event>
<event>
 4    1  0.4903958E-004  0.1000000E+04  0.7546771E-02  0.8684367E-01
         11   -1    0    0    0    0  0.00000000000E+00  0.00000000000E+00  0.50000000000E+03  0.50000000000E+03  0.00000000000E+00 0. -1.
        -11   -1    0    0    0    0 -0.00000000000E+00 -0.00000000000E+00 -0.50000000000E+03  0.50000000000E+03  0.00000000000E+00 0.  1.
          5    1    1    2  501    0 -0.19592001713E+03  0.23545587861E+02  0.45938966268E+03  0.50000000000E+03  0.47000000000E+01 0. -1.
         -5    1    1    2    0  501  0.19592001713E+03 -0.23545587861E+02 -0.45938966268E+03  0.50000000000E+03  0.47000000000E+01 0.  1.
</event>
<event>
 4    1  0.4903958E-004  0.1000000E+04  0.7546771E-02  0.8684367E-01
         11   -1    0    0    0    0  0.00000000000E+00  0.00000000000E+00  0.50000000000E+03  0.50000000000E+03  0.00000000000E+00 0. -1.
        -11   -1    0    0    0    0 -0.00000000000E+00 -0.00000000000E+00 -0.50000000000E+03  0.50000000000E+03  0.00000000000E+00 0.  1.
          5    1    1    2  501    0 -0.44585982851E+02 -0.48551033144E+03  0.11076876002E+03  0.50000000000E+03  0.47000000000E+01 0. -1.
         -5    1    1    2    0  501  0.44585982851E+02  0.48551033144E+03 -0.11076876002E+03  0.50000000000E+03  0.47000000000E+01 0.  1.
</event>
<event>
 4    1  0.4903958E-004  0.1000000E+04  0.7546771E-02  0.8684367E-01
         11   -1    0    0    0    0  0.00000000000E+00  0.00000000000E+00  0.50000000000E+03  0.50000000000E+03  0.00000000000E+00 0. -1.
        -11   -1    0    0    0    0 -0.00000000000E+00 -0.00000000000E+00 -0.50000000000E+03  0.50000000000E+03  0.00000000000E+00 0.  1.
          5    1    1    2  501    0 -0.32563667057E+03 -0.14120134657E+03  0.35213754203E+03  0.50000000000E+03  0.47000000000E+01 0. -1.
         -5    1    1    2    0  501  0.32563667057E+03  0.14120134657E+03 -0.35213754203E+03  0.50000000000E+03  0.47000000000E+01 0.  1.
</event>
<event>
 4    1  0.4903958E-004  0.1000000E+04  0.7546771E-02  0.8684367E-01
         11   -1    0    0    0    0  0.00000000000E+00  0.00000000000E+00  0.50000000000E+03  0.50000000000E+03  0.00000000000E+00 0. -1.
        -11   -1    0    0    0    0 -0.00000000000E+00 -0.00000000000E+00 -0.50000000000E+03  0.50000000000E+03  0.00000000000E+00 0.  1.
          5    1    1    2  501    0  0.12621381593E+03  0.14509635103E+03  0.46151384766E+03  0.50000000000E+03  0.47000000000E+01 0. -1.
         -5    1    1    2    0  501 -0.12621381593E+03 -0.14509635103E+03 -0.46151384766E+03  0.50000000000E+03  0.47000000000E+01 0.  1.
</event>
<event>
 4    1  0.4903958E-004  0.1000000E+04  0.7546771E-02  0.8684367E-01
         11   -1    0    0    0    0  0.00000000000E+00  0.00000000000E+00  0.50000000000E+03  0.50000000000E+03  0.00000000000E+00 0.  1.
        -11   -1    0    0    0    0 -0.00000000000E+00 -0.00000000000E+00 -0.50000000000E+03  0.50000000000E+03  0.00000000000E+00 0. -1.
          5    1    1    2  501    0  0.23934989116E+03  0.11031900477E+03 -0.42487557801E+03  0.50000000000E+03  0.47000000000E+01 0. -1.
         -5    1    1    2    0  501 -0.23934989116E+03 -0.11031900477E+03  0.42487557801E+03  0.50000000000E+03  0.47000000000E+01 0.  1.
</event>
<event>
 4    1  0.4903958E-004  0.1000000E+04  0.7546771E-02  0.8684367E-01
         11   -1    0    0    0    0  0.00000000000E+00  0.00000000000E+00  0.50000000000E+03  0.50000000000E+03  0.00000000000E+00 0. -1.
        -11   -1    0    0    0    0 -0.00000000000E+00 -0.00000000000E+00 -0.50000000000E+03  0.50000000000E+03  0.00000000000E+00 0.  1.
          5    1    1    2  501    0 -0.30560905034E+03  0.26734933090E+03  0.29172821875E+03  0.50000000000E+03  0.47000000000E+01 0. -1.
         -5    1    1    2    0  501  0.30560905034E+03 -0.26734933090E+03 -0.29172821875E+03  0.50000000000E+03  0.47000000000E+01 0.  1.
</event>
<event>
 4    1  0.4903958E-004  0.1000000E+04  0.7546771E-02  0.8684367E-01
         11   -1    0    0    0    0  0.00000000000E+00  0.00000000000E+00  0.50000000000E+03  0.50000000000E+03  0.00000000000E+00 0. -1.
        -11   -1    0    0    0    0 -0.00000000000E+00 -0.00000000000E+00 -0.50000000000E+03  0.50000000000E+03  0.00000000000E+00 0.  1.
          5    1    1    2  501    0 -0.40857347643E+03  0.28785229225E+03  0.13663169862E+02  0.50000000000E+03  0.47000000000E+01 0. -1.
         -5    1    1    2    0  501  0.40857347643E+03 -0.28785229225E+03 -0.13663169862E+02  0.50000000000E+03  0.47000000000E+01 0.  1.
</event>
<event>
 4    1  0.4903958E-004  0.1000000E+04  0.7546771E-02  0.8684367E-01
         11   -1    0    0    0    0  0.00000000000E+00  0.00000000000E+00  0.50000000000E+03  0.50000000000E+03  0.00000000000E+00 0. -1.
        -11   -1    0    0    0    0 -0.00000000000E+00 -0.00000000000E+00 -0.50000000000E+03  0.50000000000E+03  0.00000000000E+00 0.  1.
          5    1    1    2  501    0 -0.34703526041E+03 -0.27761958208E+03  0.22906725142E+03  0.50000000000E+03  0.47000000000E+01 0. -1.
         -5    1    1    2    0  501  0.34703526041E+03  0.27761958208E+03 -0.22906725142E+03  0.50000000000E+03  0.47000000000E+01 0.  1.
</event>
<event>
 4    1  0.4903958E-004  0.1000000E+04  0.7546771E-02  0.8684367E-01
         11   -1    0    0    0    0  0.00000000000E+00  0.00000000000E+00  0.50000000000E+03  0.50000000000E+03  0.00000000000E+00 0. -1.
        -11   -1    0    0    0    0 -0.00000000000E+00 -0.00000000000E+00 -0.50000000000E+03  0.50000000000E+03  0.00000000000E+00 0.  1.
          5    1    1    2  501    0  0.12455362072E+03  0.36752795752E+03  0.31525784051E+03  0.50000000000E+03  0.47000000000E+01 0. -1.
         -5    1    1    2    0  501 -0.12455362072E+03 -0.36752795752E+03 -0.31525784051E+03  0.50000000000E+03  0.47000000000E+01 0.  1.
</event>
<event>
 4    1  0.4903958E-004  0.1000000E+04  0.7546771E-02  0.8684367E-01
         11   -1    0    0    0    0  0.00000000000E+00  0.00000000000E+00  0.50000000000E+03  0.50000000000E+03  0.00000000000E+00 0. -1.
        -11   -1    0    0    0    0 -0.00000000000E+00 -0.00000000000E+00 -0.50000000000E+03  0.50000000000E+03  0.00000000000E+00 0.  1.
          5    1    1    2  501    0  0.30914546728E+03  0.15762439926E+03 -0.35994657773E+03  0.50000000000E+03  0.47000000000E+01 0.  1.
         -5    1    1    2    0  501 -0.30914546728E+03 -0.15762439926E+03  0.35994657773E+03  0.50000000000E+03  0.47000000000E+01 0. -1.
</event>
<event>
 4    1  0.4903958E-004  0.1000000E+04  0.7546771E-02  0.8684367E-01
         11   -1    0    0    0    0  0.00000000000E+00  0.00000000000E+00  0.50000000000E+03  0.50000000000E+03  0.00000000000E+00 0. -1.
        -11   -1    0    0    0    0 -0.00000000000E+00 -0.00000000000E+00 -0.50000000000E+03  0.50000000000E+03  0.00000000000E+00 0.  1.
          5    1    1    2  501    0 -0.27999590023E+02 -0.31885424386E+03  0.38409101021E+03  0.50000000000E+03  0.47000000000E+01 0. -1.
         -5    1    1    2    0  501  0.27999590023E+02  0.31885424386E+03 -0.38409101021E+03  0.50000000000E+03  0.47000000000E+01 0.  1.
</event>
<event>
 4    1  0.4903958E-004  0.1000000E+04  0.7546771E-02  0.8684367E-01
         11   -1    0    0    0    0  0.00000000000E+00  0.00000000000E+00  0.50000000000E+03  0.50000000000E+03  0.00000000000E+00 0. -1.
        -11   -1    0    0    0    0 -0.00000000000E+00 -0.00000000000E+00 -0.50000000000E+03  0.50000000000E+03  0.00000000000E+00 0.  1.
          5    1    1    2  501    0 -0.29909440570E+03 -0.46617523315E+02  0.39792870341E+03  0.50000000000E+03  0.47000000000E+01 0. -1.
         -5    1    1    2    0  501  0.29909440570E+03  0.46617523315E+02 -0.39792870341E+03  0.50000000000E+03  0.47000000000E+01 0.  1.
</event>
<event>
 4    1  0.4903958E-004  0.1000000E+04  0.7546771E-02  0.8684367E-01
         11   -1    0    0    0    0  0.00000000000E+00  0.00000000000E+00  0.50000000000E+03  0.50000000000E+03  0.00000000000E+00 0. -1.
        -11   -1    0    0    0    0 -0.00000000000E+00 -0.00000000000E+00 -0.50000000000E+03  0.50000000000E+03  0.00000000000E+00 0.  1.
          5    1    1    2  501    0  0.23856948863E+03  0.99719731231E+02  0.42792345612E+03  0.50000000000E+03  0.47000000000E+01 0. -1.
         -5    1    1    2    0  501 -0.23856948863E+03 -0.99719731231E+02 -0.42792345612E+03  0.50000000000E+03  0.47000000000E+01 0.  1.
</event>
<event>
 4    1  0.4903958E-004  0.1000000E+04  0.7546771E-02  0.8684367E-01
         11   -1    0    0    0    0  0.00000000000E+00  0.00000000000E+00  0.50000000000E+03  0.50000000000E+03  0.00000000000E+00 0. -1.
        -11   -1    0    0    0    0 -0.00000000000E+00 -0.00000000000E+00 -0.50000000000E+03  0.50000000000E+03  0.00000000000E+00 0.  1.
          5    1    1    2  501    0  0.68573242974E+02 -0.13108340670E+02  0.49507958123E+03  0.50000000000E+03  0.47000000000E+01 0. -1.
         -5    1    1    2    0  501 -0.68573242974E+02  0.13108340670E+02 -0.49507958123E+03  0.50000000000E+03  0.47000000000E+01 0.  1.
</event>
<event>
 4    1  0.4903958E-004  0.1000000E+04  0.7546771E-02  0.8684367E-01
         11   -1    0    0    0    0  0.00000000000E+00  0.00000000000E+00  0.50000000000E+03  0.50000000000E+03  0.00000000000E+00 0. -1.
        -11   -1    0    0    0    0 -0.00000000000E+00 -0.00000000000E+00 -0.50000000000E+03  0.50000000000E+03  0.00000000000E+00 0.  1.
          5    1    1    2  501    0  0.36685933773E+03  0.12249523572E+03 -0.31683916037E+03  0.50000000000E+03  0.47000000000E+01 0. -1.
         -5    1    1    2    0  501 -0.36685933773E+03 -0.12249523572E+03  0.31683916037E+03  0.50000000000E+03  0.47000000000E+01 0.  1.
</event>
<event>
 4    1  0.4903958E-004  0.1000000E+04  0.7546771E-02  0.8684367E-01
         11   -1    0    0    0    0  0.00000000000E+00  0.00000000000E+00  0.50000000000E+03  0.50000000000E+03  0.00000000000E+00 0.  1.
        -11   -1    0    0    0    0 -0.00000000000E+00 -0.00000000000E+00 -0.50000000000E+03  0.50000000000E+03  0.00000000000E+00 0. -1.
          5    1    1    2  501    0  0.30287392130E+03  0.30148157586E+03  0.25952679479E+03  0.50000000000E+03  0.47000000000E+01 0.  1.
         -5    1    1    2    0  501 -0.30287392130E+03 -0.30148157586E+03 -0.25952679479E+03  0.50000000000E+03  0.47000000000E+01 0. -1.
</event>
<event>
 4    1  0.4903958E-004  0.1000000E+04  0.7546771E-02  0.8684367E-01
         11   -1    0    0    0    0  0.00000000000E+00  0.00000000000E+00  0.50000000000E+03  0.50000000000E+03  0.00000000000E+00 0. -1.
        -11   -1    0    0    0    0 -0.00000000000E+00 -0.00000000000E+00 -0.50000000000E+03  0.50000000000E+03  0.00000000000E+00 0.  1.
          5    1    1    2  501    0  0.32927421500E+03  0.20206430879E+03  0.31737425297E+03  0.50000000000E+03  0.47000000000E+01 0. -1.
         -5    1    1    2    0  501 -0.32927421500E+03 -0.20206430879E+03 -0.31737425297E+03  0.50000000000E+03  0.47000000000E+01 0.  1.
</event>
<event>
 4    1  0.4903958E-004  0.1000000E+04  0.7546771E-02  0.8684367E-01
         11   -1    0    0    0    0  0.00000000000E+00  0.00000000000E+00  0.50000000000E+03  0.50000000000E+03  0.00000000000E+00 0.  1.
        -11   -1    0    0    0    0 -0.00000000000E+00 -0.00000000000E+00 -0.50000000000E+03  0.50000000000E+03  0.00000000000E+00 0. -1.
          5    1    1    2  501    0 -0.20133829359E+03  0.10841444044E+03  0.44462018694E+03  0.50000000000E+03  0.47000000000E+01 0.  1.
         -5    1    1    2    0  501  0.20133829359E+03 -0.10841444044E+03 -0.44462018694E+03  0.50000000000E+03  0.47000000000E+01 0. -1.
</event>
<event>
 4    1  0.4903958E-004  0.1000000E+04  0.7546771E-02  0.8684367E-01
         11   -1    0    0    0    0  0.00000000000E+00  0.00000000000E+00  0.50000000000E+03  0.50000000000E+03  0.00000000000E+00 0. -1.
        -11   -1    0    0    0    0 -0.00000000000E+00 -0.00000000000E+00 -0.50000000000E+03  0.50000000000E+03  0.00000000000E+00 0.  1.
          5    1    1    2  501    0  0.40548470036E+03  0.24668966508E+03 -0.15717594256E+03  0.50000000000E+03  0.47000000000E+01 0. -1.
         -5    1    1    2    0  501 -0.40548470036E+03 -0.24668966508E+03  0.15717594256E+03  0.50000000000E+03  0.47000000000E+01 0.  1.
</event>
<event>
 4    1  0.4903958E-004  0.1000000E+04  0.7546771E-02  0.8684367E-01
         11   -1    0    0    0    0  0.00000000000E+00  0.00000000000E+00  0.50000000000E+03  0.50000000000E+03  0.00000000000E+00 0. -1.
        -11   -1    0    0    0    0 -0.00000000000E+00 -0.00000000000E+00 -0.50000000000E+03  0.50000000000E+03  0.00000000000E+00 0.  1.
          5    1    1    2  501    0  0.19102337684E+03  0.10157662385E+03  0.45074401714E+03  0.50000000000E+03  0.47000000000E+01 0. -1.
         -5    1    1    2    0  501 -0.19102337684E+03 -0.10157662385E+03 -0.45074401714E+03  0.50000000000E+03  0.47000000000E+01 0.  1.
</event>
<event>
 4    1  0.4903958E-004  0.1000000E+04  0.7546771E-02  0.8684367E-01
         11   -1    0    0    0    0  0.00000000000E+00  0.00000000000E+00  0.50000000000E+03  0.50000000000E+03  0.00000000000E+00 0. -1.
        -11   -1    0    0    0    0 -0.00000000000E+00 -0.00000000000E+00 -0.50000000000E+03  0.50000000000E+03  0.00000000000E+00 0.  1.
          5    1    1    2  501    0  0.21243179757E+02  0.49842170970E+03  0.33202960963E+02  0.50000000000E+03  0.47000000000E+01 0. -1.
         -5    1    1    2    0  501 -0.21243179757E+02 -0.49842170970E+03 -0.33202960963E+02  0.50000000000E+03  0.47000000000E+01 0.  1.
</event>
<event>
 4    1  0.4903958E-004  0.1000000E+04  0.7546771E-02  0.8684367E-01
         11   -1    0    0    0    0  0.00000000000E+00  0.00000000000E+00  0.50000000000E+03  0.50000000000E+03  0.00000000000E+00 0. -1.
        -11   -1    0    0    0    0 -0.00000000000E+00 -0.00000000000E+00 -0.50000000000E+03  0.50000000000E+03  0.00000000000E+00 0.  1.
          5    1    1    2  501    0 -0.14015692241E+03 -0.51302671480E+02  0.47718128945E+03  0.50000000000E+03  0.47000000000E+01 0. -1.
         -5    1    1    2    0  501  0.14015692241E+03  0.51302671480E+02 -0.47718128945E+03  0.50000000000E+03  0.47000000000E+01 0.  1.
</event>
<event>
 4    1  0.4903958E-004  0.1000000E+04  0.7546771E-02  0.8684367E-01
         11   -1    0    0    0    0  0.00000000000E+00  0.00000000000E+00  0.50000000000E+03  0.50000000000E+03  0.00000000000E+00 0. -1.
        -11   -1    0    0    0    0 -0.00000000000E+00 -0.00000000000E+00 -0.50000000000E+03  0.50000000000E+03  0.00000000000E+00 0.  1.
          5    1    1    2  501    0 -0.17239515248E+03 -0.96615832326E+02  0.45926376119E+03  0.50000000000E+03  0.47000000000E+01 0. -1.
         -5    1    1    2    0  501  0.17239515248E+03  0.96615832326E+02 -0.45926376119E+03  0.50000000000E+03  0.47000000000E+01 0.  1.
</event>
<event>
 4    1  0.4903958E-004  0.1000000E+04  0.7546771E-02  0.8684367E-01
         11   -1    0    0    0    0  0.00000000000E+00  0.00000000000E+00  0.50000000000E+03  0.50000000000E+03  0.00000000000E+00 0. -1.
        -11   -1    0    0    0    0 -0.00000000000E+00 -0.00000000000E+00 -0.50000000000E+03  0.50000000000E+03  0.00000000000E+00 0.  1.
          5    1    1    2  501    0 -0.11781874656E+03 -0.19998993709E+03  0.44283256206E+03  0.50000000000E+03  0.47000000000E+01 0. -1.
         -5    1    1    2    0  501  0.11781874656E+03  0.19998993709E+03 -0.44283256206E+03  0.50000000000E+03  0.47000000000E+01 0.  1.
</event>
<event>
 4    1  0.4903958E-004  0.1000000E+04  0.7546771E-02  0.8684367E-01
         11   -1    0    0    0    0  0.00000000000E+00  0.00000000000E+00  0.50000000000E+03  0.50000000000E+03  0.00000000000E+00 0. -1.
        -11   -1    0    0    0    0 -0.00000000000E+00 -0.00000000000E+00 -0.50000000000E+03  0.50000000000E+03  0.00000000000E+00 0.  1.
          5    1    1    2  501    0 -0.42929235656E+03  0.23533494302E+03  0.10150589734E+03  0.50000000000E+03  0.47000000000E+01 0. -1.
         -5    1    1    2    0  501  0.42929235656E+03 -0.23533494302E+03 -0.10150589734E+03  0.50000000000E+03  0.47000000000E+01 0.  1.
</event>
<event>
 4    1  0.4903958E-004  0.1000000E+04  0.7546771E-02  0.8684367E-01
         11   -1    0    0    0    0  0.00000000000E+00  0.00000000000E+00  0.50000000000E+03  0.50000000000E+03  0.00000000000E+00 0. -1.
        -11   -1    0    0    0    0 -0.00000000000E+00 -0.00000000000E+00 -0.50000000000E+03  0.50000000000E+03  0.00000000000E+00 0.  1.
          5    1    1    2  501    0  0.48041068694E+03  0.26204359715E+02  0.13600299043E+03  0.50000000000E+03  0.47000000000E+01 0. -1.
         -5    1    1    2    0  501 -0.48041068694E+03 -0.26204359715E+02 -0.13600299043E+03  0.50000000000E+03  0.47000000000E+01 0.  1.
</event>
<event>
 4    1  0.4903958E-004  0.1000000E+04  0.7546771E-02  0.8684367E-01
         11   -1    0    0    0    0  0.00000000000E+00  0.00000000000E+00  0.50000000000E+03  0.50000000000E+03  0.00000000000E+00 0. -1.
        -11   -1    0    0    0    0 -0.00000000000E+00 -0.00000000000E+00 -0.50000000000E+03  0.50000000000E+03  0.00000000000E+00 0.  1.
          5    1    1    2  501    0 -0.57574185057E+02  0.12920449302E+03  0.47955116745E+03  0.50000000000E+03  0.47000000000E+01 0. -1.
         -5    1    1    2    0  501  0.57574185057E+02 -0.12920449302E+03 -0.47955116745E+03  0.50000000000E+03  0.47000000000E+01 0.  1.
</event>
<event>
 4    1  0.4903958E-004  0.1000000E+04  0.7546771E-02  0.8684367E-01
         11   -1    0    0    0    0  0.00000000000E+00  0.00000000000E+00  0.50000000000E+03  0.50000000000E+03  0.00000000000E+00 0.  1.
        -11   -1    0    0    0    0 -0.00000000000E+00 -0.00000000000E+00 -0.50000000000E+03  0.50000000000E+03  0.00000000000E+00 0. -1.
          5    1    1    2  501    0  0.12846540495E+03  0.38179239488E+03  0.29615725036E+03  0.50000000000E+03  0.47000000000E+01 0.  1.
         -5    1    1    2    0  501 -0.12846540495E+03 -0.38179239488E+03 -0.29615725036E+03  0.50000000000E+03  0.47000000000E+01 0. -1.
</event>
<event>
 4    1  0.4903958E-004  0.1000000E+04  0.7546771E-02  0.8684367E-01
         11   -1    0    0    0    0  0.00000000000E+00  0.00000000000E+00  0.50000000000E+03  0.50000000000E+03  0.00000000000E+00 0. -1.
        -11   -1    0    0    0    0 -0.00000000000E+00 -0.00000000000E+00 -0.50000000000E+03  0.50000000000E+03  0.00000000000E+00 0.  1.
          5    1    1    2  501    0 -0.35861748953E+03  0.10939461555E+02  0.34821219735E+03  0.50000000000E+03  0.47000000000E+01 0. -1.
         -5    1    1    2    0  501  0.35861748953E+03 -0.10939461555E+02 -0.34821219735E+03  0.50000000000E+03  0.47000000000E+01 0.  1.
</event>
<event>
 4    1  0.4903958E-004  0.1000000E+04  0.7546771E-02  0.8684367E-01
         11   -1    0    0    0    0  0.00000000000E+00  0.00000000000E+00  0.50000000000E+03  0.50000000000E+03  0.00000000000E+00 0. -1.
        -11   -1    0    0    0    0 -0.00000000000E+00 -0.00000000000E+00 -0.50000000000E+03  0.50000000000E+03  0.00000000000E+00 0.  1.
          5    1    1    2  501    0 -0.42257621108E+03 -0.24757349316E+03  0.10057147366E+03  0.50000000000E+03  0.47000000000E+01 0. -1.
         -5    1    1    2    0  501  0.42257621108E+03  0.24757349316E+03 -0.10057147366E+03  0.50000000000E+03  0.47000000000E+01 0.  1.
</event>
<event>
 4    1  0.4903958E-004  0.1000000E+04  0.7546771E-02  0.8684367E-01
         11   -1    0    0    0    0  0.00000000000E+00  0.00000000000E+00  0.50000000000E+03  0.50000000000E+03  0.00000000000E+00 0.  1.
        -11   -1    0    0    0    0 -0.00000000000E+00 -0.00000000000E+00 -0.50000000000E+03  0.50000000000E+03  0.00000000000E+00 0. -1.
          5    1    1    2  501    0 -0.55583726152E+02 -0.49419139156E+03 -0.51606471404E+02  0.50000000000E+03  0.47000000000E+01 0.  1.
         -5    1    1    2    0  501  0.55583726152E+02  0.49419139156E+03  0.51606471404E+02  0.50000000000E+03  0.47000000000E+01 0. -1.
</event>
<event>
 4    1  0.4903958E-004  0.1000000E+04  0.7546771E-02  0.8684367E-01
         11   -1    0    0    0    0  0.00000000000E+00  0.00000000000E+00  0.50000000000E+03  0.50000000000E+03  0.00000000000E+00 0. -1.
        -11   -1    0    0    0    0 -0.00000000000E+00 -0.00000000000E+00 -0.50000000000E+03  0.50000000000E+03  0.00000000000E+00 0.  1.
          5    1    1    2  501    0 -0.19638743604E+02  0.49763919923E+03  0.44130002713E+02  0.50000000000E+03  0.47000000000E+01 0. -1.
         -5    1    1    2    0  501  0.19638743604E+02 -0.49763919923E+03 -0.44130002713E+02  0.50000000000E+03  0.47000000000E+01 0.  1.
</event>
<event>
 4    1  0.4903958E-004  0.1000000E+04  0.7546771E-02  0.8684367E-01
         11   -1    0    0    0    0  0.00000000000E+00  0.00000000000E+00  0.50000000000E+03  0.50000000000E+03  0.00000000000E+00 0. -1.
        -11   -1    0    0    0    0 -0.00000000000E+00 -0.00000000000E+00 -0.50000000000E+03  0.50000000000E+03  0.00000000000E+00 0.  1.
          5    1    1    2  501    0  0.26820585094E+03 -0.39193912822E+03  0.15629219844E+03  0.50000000000E+03  0.47000000000E+01 0. -1.
         -5    1    1    2    0  501 -0.26820585094E+03  0.39193912822E+03 -0.15629219844E+03  0.50000000000E+03  0.47000000000E+01 0.  1.
</event>
<event>
 4    1  0.4903958E-004  0.1000000E+04  0.7546771E-02  0.8684367E-01
         11   -1    0    0    0    0  0.00000000000E+00  0.00000000000E+00  0.50000000000E+03  0.50000000000E+03  0.00000000000E+00 0.  1.
        -11   -1    0    0    0    0 -0.00000000000E+00 -0.00000000000E+00 -0.50000000000E+03  0.50000000000E+03  0.00000000000E+00 0. -1.
          5    1    1    2  501    0  0.29122827665E+03  0.20894494273E+03  0.34857712459E+03  0.50000000000E+03  0.47000000000E+01 0.  1.
         -5    1    1    2    0  501 -0.29122827665E+03 -0.20894494273E+03 -0.34857712459E+03  0.50000000000E+03  0.47000000000E+01 0. -1.
</event>
<event>
 4    1  0.4903958E-004  0.1000000E+04  0.7546771E-02  0.8684367E-01
         11   -1    0    0    0    0  0.00000000000E+00  0.00000000000E+00  0.50000000000E+03  0.50000000000E+03  0.00000000000E+00 0. -1.
        -11   -1    0    0    0    0 -0.00000000000E+00 -0.00000000000E+00 -0.50000000000E+03  0.50000000000E+03  0.00000000000E+00 0.  1.
          5    1    1    2  501    0 -0.28624534022E+02  0.18061930128E+02  0.49883094604E+03  0.50000000000E+03  0.47000000000E+01 0. -1.
         -5    1    1    2    0  501  0.28624534022E+02 -0.18061930128E+02 -0.49883094604E+03  0.50000000000E+03  0.47000000000E+01 0.  1.
</event>
<event>
 4    1  0.4903958E-004  0.1000000E+04  0.7546771E-02  0.8684367E-01
         11   -1    0    0    0    0  0.00000000000E+00  0.00000000000E+00  0.50000000000E+03  0.50000000000E+03  0.00000000000E+00 0. -1.
        -11   -1    0    0    0    0 -0.00000000000E+00 -0.00000000000E+00 -0.50000000000E+03  0.50000000000E+03  0.00000000000E+00 0.  1.
          5    1    1    2  501    0  0.20647011967E+03  0.37162382932E+03  0.26314203230E+03  0.50000000000E+03  0.47000000000E+01 0. -1.
         -5    1    1    2    0  501 -0.20647011967E+03 -0.37162382932E+03 -0.26314203230E+03  0.50000000000E+03  0.47000000000E+01 0.  1.
</event>
<event>
 4    1  0.4903958E-004  0.1000000E+04  0.7546771E-02  0.8684367E-01
         11   -1    0    0    0    0  0.00000000000E+00  0.00000000000E+00  0.50000000000E+03  0.50000000000E+03  0.00000000000E+00 0. -1.
        -11   -1    0    0    0    0 -0.00000000000E+00 -0.00000000000E+00 -0.50000000000E+03  0.50000000000E+03  0.00000000000E+00 0.  1.
          5    1    1    2  501    0 -0.82205658254E+02 -0.44987075476E+03  0.20208029038E+03  0.50000000000E+03  0.47000000000E+01 0. -1.
         -5    1    1    2    0  501  0.82205658254E+02  0.44987075476E+03 -0.20208029038E+03  0.50000000000E+03  0.47000000000E+01 0.  1.
</event>
<event>
 4    1  0.4903958E-004  0.1000000E+04  0.7546771E-02  0.8684367E-01
         11   -1    0    0    0    0  0.00000000000E+00  0.00000000000E+00  0.50000000000E+03  0.50000000000E+03  0.00000000000E+00 0. -1.
        -11   -1    0    0    0    0 -0.00000000000E+00 -0.00000000000E+00 -0.50000000000E+03  0.50000000000E+03  0.00000000000E+00 0.  1.
          5    1    1    2  501    0  0.28199025363E+03 -0.10852755520E+03  0.39834805964E+03  0.50000000000E+03  0.47000000000E+01 0. -1.
         -5    1    1    2    0  501 -0.28199025363E+03  0.10852755520E+03 -0.39834805964E+03  0.50000000000E+03  0.47000000000E+01 0.  1.
</event>
<event>
 4    1  0.4903958E-004  0.1000000E+04  0.7546771E-02  0.8684367E-01
         11   -1    0    0    0    0  0.00000000000E+00  0.00000000000E+00  0.50000000000E+03  0.50000000000E+03  0.00000000000E+00 0. -1.
        -11   -1    0    0    0    0 -0.00000000000E+00 -0.00000000000E+00 -0.50000000000E+03  0.50000000000E+03  0.00000000000E+00 0.  1.
          5    1    1    2  501    0 -0.43937071006E+03  0.20816269247E+03  0.11661724833E+03  0.50000000000E+03  0.47000000000E+01 0. -1.
         -5    1    1    2    0  501  0.43937071006E+03 -0.20816269247E+03 -0.11661724833E+03  0.50000000000E+03  0.47000000000E+01 0.  1.
</event>
<event>
 4    1  0.4903958E-004  0.1000000E+04  0.7546771E-02  0.8684367E-01
         11   -1    0    0    0    0  0.00000000000E+00  0.00000000000E+00  0.50000000000E+03  0.50000000000E+03  0.00000000000E+00 0.  1.
        -11   -1    0    0    0    0 -0.00000000000E+00 -0.00000000000E+00 -0.50000000000E+03  0.50000000000E+03  0.00000000000E+00 0. -1.
          5    1    1    2  501    0  0.94854972836E+02 -0.24530488727E+03  0.42521283660E+03  0.50000000000E+03  0.47000000000E+01 0.  1.
         -5    1    1    2    0  501 -0.94854972836E+02  0.24530488727E+03 -0.42521283660E+03  0.50000000000E+03  0.47000000000E+01 0. -1.
</event>
<event>
 4    1  0.4903958E-004  0.1000000E+04  0.7546771E-02  0.8684367E-01
         11   -1    0    0    0    0  0.00000000000E+00  0.00000000000E+00  0.50000000000E+03  0.50000000000E+03  0.00000000000E+00 0. -1.
        -11   -1    0    0    0    0 -0.00000000000E+00 -0.00000000000E+00 -0.50000000000E+03  0.50000000000E+03  0.00000000000E+00 0.  1.
          5    1    1    2  501    0 -0.17455934151E+03 -0.17742491675E+03  0.43362120014E+03  0.50000000000E+03  0.47000000000E+01 0. -1.
         -5    1    1    2    0  501  0.17455934151E+03  0.17742491675E+03 -0.43362120014E+03  0.50000000000E+03  0.47000000000E+01 0.  1.
</event>
<event>
 4    1  0.4903958E-004  0.1000000E+04  0.7546771E-02  0.8684367E-01
         11   -1    0    0    0    0  0.00000000000E+00  0.00000000000E+00  0.50000000000E+03  0.50000000000E+03  0.00000000000E+00 0. -1.
        -11   -1    0    0    0    0 -0.00000000000E+00 -0.00000000000E+00 -0.50000000000E+03  0.50000000000E+03  0.00000000000E+00 0.  1.
          5    1    1    2  501    0 -0.33965772965E+03  0.31396447254E+03 -0.18983373428E+03  0.50000000000E+03  0.47000000000E+01 0. -1.
         -5    1    1    2    0  501  0.33965772965E+03 -0.31396447254E+03  0.18983373428E+03  0.50000000000E+03  0.47000000000E+01 0.  1.
</event>
<event>
 4    1  0.4903958E-004  0.1000000E+04  0.7546771E-02  0.8684367E-01
         11   -1    0    0    0    0  0.00000000000E+00  0.00000000000E+00  0.50000000000E+03  0.50000000000E+03  0.00000000000E+00 0. -1.
        -11   -1    0    0    0    0 -0.00000000000E+00 -0.00000000000E+00 -0.50000000000E+03  0.50000000000E+03  0.00000000000E+00 0.  1.
          5    1    1    2  501    0 -0.40919128184E+03  0.27174673749E+03  0.93242241147E+02  0.50000000000E+03  0.47000000000E+01 0. -1.
         -5    1    1    2    0  501  0.40919128184E+03 -0.27174673749E+03 -0.93242241147E+02  0.50000000000E+03  0.47000000000E+01 0.  1.
</event>
<event>
 4    1  0.4903958E-004  0.1000000E+04  0.7546771E-02  0.8684367E-01
         11   -1    0    0    0    0  0.00000000000E+00  0.00000000000E+00  0.50000000000E+03  0.50000000000E+03  0.00000000000E+00 0. -1.
        -11   -1    0    0    0    0 -0.00000000000E+00 -0.00000000000E+00 -0.50000000000E+03  0.50000000000E+03  0.00000000000E+00 0.  1.
          5    1    1    2  501    0  0.32543964575E+03  0.28690270673E+03  0.24850308618E+03  0.50000000000E+03  0.47000000000E+01 0. -1.
         -5    1    1    2    0  501 -0.32543964575E+03 -0.28690270673E+03 -0.24850308618E+03  0.50000000000E+03  0.47000000000E+01 0.  1.
</event>
<event>
 4    1  0.4903958E-004  0.1000000E+04  0.7546771E-02  0.8684367E-01
         11   -1    0    0    0    0  0.00000000000E+00  0.00000000000E+00  0.50000000000E+03  0.50000000000E+03  0.00000000000E+00 0. -1.
        -11   -1    0    0    0    0 -0.00000000000E+00 -0.00000000000E+00 -0.50000000000E+03  0.50000000000E+03  0.00000000000E+00 0.  1.
          5    1    1    2  501    0 -0.26326877940E+02 -0.36485069293E+03  0.34083541096E+03  0.50000000000E+03  0.47000000000E+01 0. -1.
         -5    1    1    2    0  501  0.26326877940E+02  0.36485069293E+03 -0.34083541096E+03  0.50000000000E+03  0.47000000000E+01 0.  1.
</event>
<event>
 4    1  0.4903958E-004  0.1000000E+04  0.7546771E-02  0.8684367E-01
         11   -1    0    0    0    0  0.00000000000E+00  0.00000000000E+00  0.50000000000E+03  0.50000000000E+03  0.00000000000E+00 0.  1.
        -11   -1    0    0    0    0 -0.00000000000E+00 -0.00000000000E+00 -0.50000000000E+03  0.50000000000E+03  0.00000000000E+00 0. -1.
          5    1    1    2  501    0  0.32246997715E+03  0.38104113763E+03  0.28260843339E+02  0.50000000000E+03  0.47000000000E+01 0.  1.
         -5    1    1    2    0  501 -0.32246997715E+03 -0.38104113763E+03 -0.28260843339E+02  0.50000000000E+03  0.47000000000E+01 0. -1.
</event>
<event>
 4    1  0.4903958E-004  0.1000000E+04  0.7546771E-02  0.8684367E-01
         11   -1    0    0    0    0  0.00000000000E+00  0.00000000000E+00  0.50000000000E+03  0.50000000000E+03  0.00000000000E+00 0. -1.
        -11   -1    0    0    0    0 -0.00000000000E+00 -0.00000000000E+00 -0.50000000000E+03  0.50000000000E+03  0.00000000000E+00 0.  1.
          5    1    1    2  501    0  0.25098484706E+03  0.23133237011E+03  0.36533525847E+03  0.50000000000E+03  0.47000000000E+01 0. -1.
         -5    1    1    2    0  501 -0.25098484706E+03 -0.23133237011E+03 -0.36533525847E+03  0.50000000000E+03  0.47000000000E+01 0.  1.
</event>
<event>
 4    1  0.4903958E-004  0.1000000E+04  0.7546771E-02  0.8684367E-01
         11   -1    0    0    0    0  0.00000000000E+00  0.00000000000E+00  0.50000000000E+03  0.50000000000E+03  0.00000000000E+00 0.  1.
        -11   -1    0    0    0    0 -0.00000000000E+00 -0.00000000000E+00 -0.50000000000E+03  0.50000000000E+03  0.00000000000E+00 0. -1.
          5    1    1    2  501    0 -0.29424644356E+03  0.27485711162E+03  0.29639586475E+03  0.50000000000E+03  0.47000000000E+01 0.  1.
         -5    1    1    2    0  501  0.29424644356E+03 -0.27485711162E+03 -0.29639586475E+03  0.50000000000E+03  0.47000000000E+01 0. -1.
</event>
<event>
 4    1  0.4903958E-004  0.1000000E+04  0.7546771E-02  0.8684367E-01
         11   -1    0    0    0    0  0.00000000000E+00  0.00000000000E+00  0.50000000000E+03  0.50000000000E+03  0.00000000000E+00 0. -1.
        -11   -1    0    0    0    0 -0.00000000000E+00 -0.00000000000E+00 -0.50000000000E+03  0.50000000000E+03  0.00000000000E+00 0.  1.
          5    1    1    2  501    0 -0.38735965645E+03  0.25829183876E+03  0.18225183836E+03  0.50000000000E+03  0.47000000000E+01 0. -1.
         -5    1    1    2    0  501  0.38735965645E+03 -0.25829183876E+03 -0.18225183836E+03  0.50000000000E+03  0.47000000000E+01 0.  1.
</event>
<event>
 4    1  0.4903958E-004  0.1000000E+04  0.7546771E-02  0.8684367E-01
         11   -1    0    0    0    0  0.00000000000E+00  0.00000000000E+00  0.50000000000E+03  0.50000000000E+03  0.00000000000E+00 0. -1.
        -11   -1    0    0    0    0 -0.00000000000E+00 -0.00000000000E+00 -0.50000000000E+03  0.50000000000E+03  0.00000000000E+00 0.  1.
          5    1    1    2  501    0 -0.16135525697E+03  0.65025384868E+02  0.46873669621E+03  0.50000000000E+03  0.47000000000E+01 0. -1.
         -5    1    1    2    0  501  0.16135525697E+03 -0.65025384868E+02 -0.46873669621E+03  0.50000000000E+03  0.47000000000E+01 0.  1.
</event>
<event>
 4    1  0.4903958E-004  0.1000000E+04  0.7546771E-02  0.8684367E-01
         11   -1    0    0    0    0  0.00000000000E+00  0.00000000000E+00  0.50000000000E+03  0.50000000000E+03  0.00000000000E+00 0. -1.
        -11   -1    0    0    0    0 -0.00000000000E+00 -0.00000000000E+00 -0.50000000000E+03  0.50000000000E+03  0.00000000000E+00 0.  1.
          5    1    1    2  501    0  0.10050127296E+03 -0.46624831189E+03  0.14996638220E+03  0.50000000000E+03  0.47000000000E+01 0. -1.
         -5    1    1    2    0  501 -0.10050127296E+03  0.46624831189E+03 -0.14996638220E+03  0.50000000000E+03  0.47000000000E+01 0.  1.
</event>
<event>
 4    1  0.4903958E-004  0.1000000E+04  0.7546771E-02  0.8684367E-01
         11   -1    0    0    0    0  0.00000000000E+00  0.00000000000E+00  0.50000000000E+03  0.50000000000E+03  0.00000000000E+00 0. -1.
        -11   -1    0    0    0    0 -0.00000000000E+00 -0.00000000000E+00 -0.50000000000E+03  0.50000000000E+03  0.00000000000E+00 0.  1.
          5    1    1    2  501    0 -0.27089270016E+03 -0.35999844083E+03 -0.21678601800E+03  0.50000000000E+03  0.47000000000E+01 0.  1.
         -5    1    1    2    0  501  0.27089270016E+03  0.35999844083E+03  0.21678601800E+03  0.50000000000E+03  0.47000000000E+01 0. -1.
</event>
<event>
 4    1  0.4903958E-004  0.1000000E+04  0.7546771E-02  0.8684367E-01
         11   -1    0    0    0    0  0.00000000000E+00  0.00000000000E+00  0.50000000000E+03  0.50000000000E+03  0.00000000000E+00 0. -1.
        -11   -1    0    0    0    0 -0.00000000000E+00 -0.00000000000E+00 -0.50000000000E+03  0.50000000000E+03  0.00000000000E+00 0.  1.
          5    1    1    2  501    0  0.36337350548E+03  0.13247793862E+03  0.31683939353E+03  0.50000000000E+03  0.47000000000E+01 0. -1.
         -5    1    1    2    0  501 -0.36337350548E+03 -0.13247793862E+03 -0.31683939353E+03  0.50000000000E+03  0.47000000000E+01 0.  1.
</event>
<event>
 4    1  0.4903958E-004  0.1000000E+04  0.7546771E-02  0.8684367E-01
         11   -1    0    0    0    0  0.00000000000E+00  0.00000000000E+00  0.50000000000E+03  0.50000000000E+03  0.00000000000E+00 0.  1.
        -11   -1    0    0    0    0 -0.00000000000E+00 -0.00000000000E+00 -0.50000000000E+03  0.50000000000E+03  0.00000000000E+00 0. -1.
          5    1    1    2  501    0 -0.77323594926E+02  0.25267910448E+03  0.42444344950E+03  0.50000000000E+03  0.47000000000E+01 0.  1.
         -5    1    1    2    0  501  0.77323594926E+02 -0.25267910448E+03 -0.42444344950E+03  0.50000000000E+03  0.47000000000E+01 0. -1.
</event>
<event>
 4    1  0.4903958E-004  0.1000000E+04  0.7546771E-02  0.8684367E-01
         11   -1    0    0    0    0  0.00000000000E+00  0.00000000000E+00  0.50000000000E+03  0.50000000000E+03  0.00000000000E+00 0. -1.
        -11   -1    0    0    0    0 -0.00000000000E+00 -0.00000000000E+00 -0.50000000000E+03  0.50000000000E+03  0.00000000000E+00 0.  1.
          5    1    1    2  501    0  0.15369438139E+03  0.47513395070E+03  0.24569819338E+02  0.50000000000E+03  0.47000000000E+01 0. -1.
         -5    1    1    2    0  501 -0.15369438139E+03 -0.47513395070E+03 -0.24569819338E+02  0.50000000000E+03  0.47000000000E+01 0.  1.
</event>
<event>
 4    1  0.4903958E-004  0.1000000E+04  0.7546771E-02  0.8684367E-01
         11   -1    0    0    0    0  0.00000000000E+00  0.00000000000E+00  0.50000000000E+03  0.50000000000E+03  0.00000000000E+00 0. -1.
        -11   -1    0    0    0    0 -0.00000000000E+00 -0.00000000000E+00 -0.50000000000E+03  0.50000000000E+03  0.00000000000E+00 0.  1.
          5    1    1    2  501    0  0.20220076841E+03 -0.11996948097E+03  0.44124832339E+03  0.50000000000E+03  0.47000000000E+01 0. -1.
         -5    1    1    2    0  501 -0.20220076841E+03  0.11996948097E+03 -0.44124832339E+03  0.50000000000E+03  0.47000000000E+01 0.  1.
</event>
<event>
 4    1  0.4903958E-004  0.1000000E+04  0.7546771E-02  0.8684367E-01
         11   -1    0    0    0    0  0.00000000000E+00  0.00000000000E+00  0.50000000000E+03  0.50000000000E+03  0.00000000000E+00 0. -1.
        -11   -1    0    0    0    0 -0.00000000000E+00 -0.00000000000E+00 -0.50000000000E+03  0.50000000000E+03  0.00000000000E+00 0.  1.
          5    1    1    2  501    0  0.72036992166E+02 -0.59122551110E+02  0.49121594611E+03  0.50000000000E+03  0.47000000000E+01 0. -1.
         -5    1    1    2    0  501 -0.72036992166E+02  0.59122551110E+02 -0.49121594611E+03  0.50000000000E+03  0.47000000000E+01 0.  1.
</event>
<event>
 4    1  0.4903958E-004  0.1000000E+04  0.7546771E-02  0.8684367E-01
         11   -1    0    0    0    0  0.00000000000E+00  0.00000000000E+00  0.50000000000E+03  0.50000000000E+03  0.00000000000E+00 0. -1.
        -11   -1    0    0    0    0 -0.00000000000E+00 -0.00000000000E+00 -0.50000000000E+03  0.50000000000E+03  0.00000000000E+00 0.  1.
          5    1    1    2  501    0  0.19958763404E+03  0.17201527346E+02  0.45809037732E+03  0.50000000000E+03  0.47000000000E+01 0. -1.
         -5    1    1    2    0  501 -0.19958763404E+03 -0.17201527346E+02 -0.45809037732E+03  0.50000000000E+03  0.47000000000E+01 0.  1.
</event>
<event>
 4    1  0.4903958E-004  0.1000000E+04  0.7546771E-02  0.8684367E-01
         11   -1    0    0    0    0  0.00000000000E+00  0.00000000000E+00  0.50000000000E+03  0.50000000000E+03  0.00000000000E+00 0. -1.
        -11   -1    0    0    0    0 -0.00000000000E+00 -0.00000000000E+00 -0.50000000000E+03  0.50000000000E+03  0.00000000000E+00 0.  1.
          5    1    1    2  501    0 -0.79231406593E+02 -0.28733481826E+03  0.40142122070E+03  0.50000000000E+03  0.47000000000E+01 0. -1.
         -5    1    1    2    0  501  0.79231406593E+02  0.28733481826E+03 -0.40142122070E+03  0.50000000000E+03  0.47000000000E+01 0.  1.
</event>
<event>
 4    1  0.4903958E-004  0.1000000E+04  0.7546771E-02  0.8684367E-01
         11   -1    0    0    0    0  0.00000000000E+00  0.00000000000E+00  0.50000000000E+03  0.50000000000E+03  0.00000000000E+00 0. -1.
        -11   -1    0    0    0    0 -0.00000000000E+00 -0.00000000000E+00 -0.50000000000E+03  0.50000000000E+03  0.00000000000E+00 0.  1.
          5    1    1    2  501    0  0.11739076143E+03 -0.22341332457E+03  0.43160607680E+03  0.50000000000E+03  0.47000000000E+01 0. -1.
         -5    1    1    2    0  501 -0.11739076143E+03  0.22341332457E+03 -0.43160607680E+03  0.50000000000E+03  0.47000000000E+01 0.  1.
</event>
<event>
 4    1  0.4903958E-004  0.1000000E+04  0.7546771E-02  0.8684367E-01
         11   -1    0    0    0    0  0.00000000000E+00  0.00000000000E+00  0.50000000000E+03  0.50000000000E+03  0.00000000000E+00 0. -1.
        -11   -1    0    0    0    0 -0.00000000000E+00 -0.00000000000E+00 -0.50000000000E+03  0.50000000000E+03  0.00000000000E+00 0.  1.
          5    1    1    2  501    0 -0.64459135144E+02  0.27531539724E+03  0.41234010469E+03  0.50000000000E+03  0.47000000000E+01 0. -1.
         -5    1    1    2    0  501  0.64459135144E+02 -0.27531539724E+03 -0.41234010469E+03  0.50000000000E+03  0.47000000000E+01 0.  1.
</event>
<event>
 4    1  0.4903958E-004  0.1000000E+04  0.7546771E-02  0.8684367E-01
         11   -1    0    0    0    0  0.00000000000E+00  0.00000000000E+00  0.50000000000E+03  0.50000000000E+03  0.00000000000E+00 0. -1.
        -11   -1    0    0    0    0 -0.00000000000E+00 -0.00000000000E+00 -0.50000000000E+03  0.50000000000E+03  0.00000000000E+00 0.  1.
          5    1    1    2  501    0  0.44874332474E+03 -0.22043624202E+03  0.38989357093E+01  0.50000000000E+03  0.47000000000E+01 0. -1.
         -5    1    1    2    0  501 -0.44874332474E+03  0.22043624202E+03 -0.38989357093E+01  0.50000000000E+03  0.47000000000E+01 0.  1.
</event>
<event>
 4    1  0.4903958E-004  0.1000000E+04  0.7546771E-02  0.8684367E-01
         11   -1    0    0    0    0  0.00000000000E+00  0.00000000000E+00  0.50000000000E+03  0.50000000000E+03  0.00000000000E+00 0. -1.
        -11   -1    0    0    0    0 -0.00000000000E+00 -0.00000000000E+00 -0.50000000000E+03  0.50000000000E+03  0.00000000000E+00 0.  1.
          5    1    1    2  501    0 -0.38569387537E+03 -0.14813717815E+03  0.28155553796E+03  0.50000000000E+03  0.47000000000E+01 0. -1.
         -5    1    1    2    0  501  0.38569387537E+03  0.14813717815E+03 -0.28155553796E+03  0.50000000000E+03  0.47000000000E+01 0.  1.
</event>
<event>
 4    1  0.4903958E-004  0.1000000E+04  0.7546771E-02  0.8684367E-01
         11   -1    0    0    0    0  0.00000000000E+00  0.00000000000E+00  0.50000000000E+03  0.50000000000E+03  0.00000000000E+00 0. -1.
        -11   -1    0    0    0    0 -0.00000000000E+00 -0.00000000000E+00 -0.50000000000E+03  0.50000000000E+03  0.00000000000E+00 0.  1.
          5    1    1    2  501    0 -0.27362145062E+03  0.30482180856E+03  0.28669300093E+03  0.50000000000E+03  0.47000000000E+01 0. -1.
         -5    1    1    2    0  501  0.27362145062E+03 -0.30482180856E+03 -0.28669300093E+03  0.50000000000E+03  0.47000000000E+01 0.  1.
</event>
<event>
 4    1  0.4903958E-004  0.1000000E+04  0.7546771E-02  0.8684367E-01
         11   -1    0    0    0    0  0.00000000000E+00  0.00000000000E+00  0.50000000000E+03  0.50000000000E+03  0.00000000000E+00 0. -1.
        -11   -1    0    0    0    0 -0.00000000000E+00 -0.00000000000E+00 -0.50000000000E+03  0.50000000000E+03  0.00000000000E+00 0.  1.
          5    1    1    2  501    0  0.34500372393E+03  0.33714232979E+03  0.13147391352E+03  0.50000000000E+03  0.47000000000E+01 0. -1.
         -5    1    1    2    0  501 -0.34500372393E+03 -0.33714232979E+03 -0.13147391352E+03  0.50000000000E+03  0.47000000000E+01 0.  1.
</event>
<event>
 4    1  0.4903958E-004  0.1000000E+04  0.7546771E-02  0.8684367E-01
         11   -1    0    0    0    0  0.00000000000E+00  0.00000000000E+00  0.50000000000E+03  0.50000000000E+03  0.00000000000E+00 0. -1.
        -11   -1    0    0    0    0 -0.00000000000E+00 -0.00000000000E+00 -0.50000000000E+03  0.50000000000E+03  0.00000000000E+00 0.  1.
          5    1    1    2  501    0  0.29547399611E+03  0.15899826611E+03 -0.37066504961E+03  0.50000000000E+03  0.47000000000E+01 0. -1.
         -5    1    1    2    0  501 -0.29547399611E+03 -0.15899826611E+03  0.37066504961E+03  0.50000000000E+03  0.47000000000E+01 0.  1.
</event>
<event>
 4    1  0.4903958E-004  0.1000000E+04  0.7546771E-02  0.8684367E-01
         11   -1    0    0    0    0  0.00000000000E+00  0.00000000000E+00  0.50000000000E+03  0.50000000000E+03  0.00000000000E+00 0. -1.
        -11   -1    0    0    0    0 -0.00000000000E+00 -0.00000000000E+00 -0.50000000000E+03  0.50000000000E+03  0.00000000000E+00 0.  1.
          5    1    1    2  501    0 -0.17319685342E+03 -0.35190788847E+03  0.31006708629E+03  0.50000000000E+03  0.47000000000E+01 0. -1.
         -5    1    1    2    0  501  0.17319685342E+03  0.35190788847E+03 -0.31006708629E+03  0.50000000000E+03  0.47000000000E+01 0.  1.
</event>
<event>
 4    1  0.4903958E-004  0.1000000E+04  0.7546771E-02  0.8684367E-01
         11   -1    0    0    0    0  0.00000000000E+00  0.00000000000E+00  0.50000000000E+03  0.50000000000E+03  0.00000000000E+00 0. -1.
        -11   -1    0    0    0    0 -0.00000000000E+00 -0.00000000000E+00 -0.50000000000E+03  0.50000000000E+03  0.00000000000E+00 0.  1.
          5    1    1    2  501    0  0.10997713466E+03  0.42802447996E+03  0.23383324059E+03  0.50000000000E+03  0.47000000000E+01 0. -1.
         -5    1    1    2    0  501 -0.10997713466E+03 -0.42802447996E+03 -0.23383324059E+03  0.50000000000E+03  0.47000000000E+01 0.  1.
</event>
<event>
 4    1  0.4903958E-004  0.1000000E+04  0.7546771E-02  0.8684367E-01
         11   -1    0    0    0    0  0.00000000000E+00  0.00000000000E+00  0.50000000000E+03  0.50000000000E+03  0.00000000000E+00 0. -1.
        -11   -1    0    0    0    0 -0.00000000000E+00 -0.00000000000E+00 -0.50000000000E+03  0.50000000000E+03  0.00000000000E+00 0.  1.
          5    1    1    2  501    0  0.23356611004E+03  0.32500489367E+03  0.29966081047E+03  0.50000000000E+03  0.47000000000E+01 0. -1.
         -5    1    1    2    0  501 -0.23356611004E+03 -0.32500489367E+03 -0.29966081047E+03  0.50000000000E+03  0.47000000000E+01 0.  1.
</event>
<event>
 4    1  0.4903958E-004  0.1000000E+04  0.7546771E-02  0.8684367E-01
         11   -1    0    0    0    0  0.00000000000E+00  0.00000000000E+00  0.50000000000E+03  0.50000000000E+03  0.00000000000E+00 0. -1.
        -11   -1    0    0    0    0 -0.00000000000E+00 -0.00000000000E+00 -0.50000000000E+03  0.50000000000E+03  0.00000000000E+00 0.  1.
          5    1    1    2  501    0 -0.48539042878E+03 -0.10728962758E+03  0.53506798266E+02  0.50000000000E+03  0.47000000000E+01 0. -1.
         -5    1    1    2    0  501  0.48539042878E+03  0.10728962758E+03 -0.53506798266E+02  0.50000000000E+03  0.47000000000E+01 0.  1.
</event>
<event>
 4    1  0.4903958E-004  0.1000000E+04  0.7546771E-02  0.8684367E-01
         11   -1    0    0    0    0  0.00000000000E+00  0.00000000000E+00  0.50000000000E+03  0.50000000000E+03  0.00000000000E+00 0. -1.
        -11   -1    0    0    0    0 -0.00000000000E+00 -0.00000000000E+00 -0.50000000000E+03  0.50000000000E+03  0.00000000000E+00 0.  1.
          5    1    1    2  501    0  0.19672589753E+03 -0.50985965613E+02  0.45681206481E+03  0.50000000000E+03  0.47000000000E+01 0. -1.
         -5    1    1    2    0  501 -0.19672589753E+03  0.50985965613E+02 -0.45681206481E+03  0.50000000000E+03  0.47000000000E+01 0.  1.
</event>
<event>
 4    1  0.4903958E-004  0.1000000E+04  0.7546771E-02  0.8684367E-01
         11   -1    0    0    0    0  0.00000000000E+00  0.00000000000E+00  0.50000000000E+03  0.50000000000E+03  0.00000000000E+00 0.  1.
        -11   -1    0    0    0    0 -0.00000000000E+00 -0.00000000000E+00 -0.50000000000E+03  0.50000000000E+03  0.00000000000E+00 0. -1.
          5    1    1    2  501    0  0.36038228702E+03  0.12299856594E+03 -0.32399671292E+03  0.50000000000E+03  0.47000000000E+01 0. -1.
         -5    1    1    2    0  501 -0.36038228702E+03 -0.12299856594E+03  0.32399671292E+03  0.50000000000E+03  0.47000000000E+01 0.  1.
</event>
<event>
 4    1  0.4903958E-004  0.1000000E+04  0.7546771E-02  0.8684367E-01
         11   -1    0    0    0    0  0.00000000000E+00  0.00000000000E+00  0.50000000000E+03  0.50000000000E+03  0.00000000000E+00 0. -1.
        -11   -1    0    0    0    0 -0.00000000000E+00 -0.00000000000E+00 -0.50000000000E+03  0.50000000000E+03  0.00000000000E+00 0.  1.
          5    1    1    2  501    0 -0.46949131214E+03  0.47592174360E+02  0.16519928199E+03  0.50000000000E+03  0.47000000000E+01 0. -1.
         -5    1    1    2    0  501  0.46949131214E+03 -0.47592174360E+02 -0.16519928199E+03  0.50000000000E+03  0.47000000000E+01 0.  1.
</event>
<event>
 4    1  0.4903958E-004  0.1000000E+04  0.7546771E-02  0.8684367E-01
         11   -1    0    0    0    0  0.00000000000E+00  0.00000000000E+00  0.50000000000E+03  0.50000000000E+03  0.00000000000E+00 0.  1.
        -11   -1    0    0    0    0 -0.00000000000E+00 -0.00000000000E+00 -0.50000000000E+03  0.50000000000E+03  0.00000000000E+00 0. -1.
          5    1    1    2  501    0 -0.23644312689E+03  0.43960058484E+03  0.28703371891E+02  0.50000000000E+03  0.47000000000E+01 0.  1.
         -5    1    1    2    0  501  0.23644312689E+03 -0.43960058484E+03 -0.28703371891E+02  0.50000000000E+03  0.47000000000E+01 0. -1.
</event>
<event>
 4    1  0.4903958E-004  0.1000000E+04  0.7546771E-02  0.8684367E-01
         11   -1    0    0    0    0  0.00000000000E+00  0.00000000000E+00  0.50000000000E+03  0.50000000000E+03  0.00000000000E+00 0. -1.
        -11   -1    0    0    0    0 -0.00000000000E+00 -0.00000000000E+00 -0.50000000000E+03  0.50000000000E+03  0.00000000000E+00 0.  1.
          5    1    1    2  501    0 -0.38627444552E+03  0.24145154664E+03  0.20608520898E+03  0.50000000000E+03  0.47000000000E+01 0. -1.
         -5    1    1    2    0  501  0.38627444552E+03 -0.24145154664E+03 -0.20608520898E+03  0.50000000000E+03  0.47000000000E+01 0.  1.
</event>
<event>
 4    1  0.4903958E-004  0.1000000E+04  0.7546771E-02  0.8684367E-01
         11   -1    0    0    0    0  0.00000000000E+00  0.00000000000E+00  0.50000000000E+03  0.50000000000E+03  0.00000000000E+00 0.  1.
        -11   -1    0    0    0    0 -0.00000000000E+00 -0.00000000000E+00 -0.50000000000E+03  0.50000000000E+03  0.00000000000E+00 0. -1.
          5    1    1    2  501    0  0.18456090436E+03  0.22876283783E+03  0.40445363963E+03  0.50000000000E+03  0.47000000000E+01 0.  1.
         -5    1    1    2    0  501 -0.18456090436E+03 -0.22876283783E+03 -0.40445363963E+03  0.50000000000E+03  0.47000000000E+01 0. -1.
</event>
<event>
 4    1  0.4903958E-004  0.1000000E+04  0.7546771E-02  0.8684367E-01
         11   -1    0    0    0    0  0.00000000000E+00  0.00000000000E+00  0.50000000000E+03  0.50000000000E+03  0.00000000000E+00 0. -1.
        -11   -1    0    0    0    0 -0.00000000000E+00 -0.00000000000E+00 -0.50000000000E+03  0.50000000000E+03  0.00000000000E+00 0.  1.
          5    1    1    2  501    0  0.13124494466E+03 -0.45129880451E+01  0.48242336950E+03  0.50000000000E+03  0.47000000000E+01 0. -1.
         -5    1    1    2    0  501 -0.13124494466E+03  0.45129880451E+01 -0.48242336950E+03  0.50000000000E+03  0.47000000000E+01 0.  1.
</event>
<event>
 4    1  0.4903958E-004  0.1000000E+04  0.7546771E-02  0.8684367E-01
         11   -1    0    0    0    0  0.00000000000E+00  0.00000000000E+00  0.50000000000E+03  0.50000000000E+03  0.00000000000E+00 0. -1.
        -11   -1    0    0    0    0 -0.00000000000E+00 -0.00000000000E+00 -0.50000000000E+03  0.50000000000E+03  0.00000000000E+00 0.  1.
          5    1    1    2  501    0 -0.49593366833E+03  0.47684454785E+02 -0.41879582009E+02  0.50000000000E+03  0.47000000000E+01 0. -1.
         -5    1    1    2    0  501  0.49593366833E+03 -0.47684454785E+02  0.41879582009E+02  0.50000000000E+03  0.47000000000E+01 0.  1.
</event>
<event>
 4    1  0.4903958E-004  0.1000000E+04  0.7546771E-02  0.8684367E-01
         11   -1    0    0    0    0  0.00000000000E+00  0.00000000000E+00  0.50000000000E+03  0.50000000000E+03  0.00000000000E+00 0. -1.
        -11   -1    0    0    0    0 -0.00000000000E+00 -0.00000000000E+00 -0.50000000000E+03  0.50000000000E+03  0.00000000000E+00 0.  1.
          5    1    1    2  501    0  0.36630318824E+03 -0.63793048086E+02  0.33426087313E+03  0.50000000000E+03  0.47000000000E+01 0. -1.
         -5    1    1    2    0  501 -0.36630318824E+03  0.63793048086E+02 -0.33426087313E+03  0.50000000000E+03  0.47000000000E+01 0.  1.
</event>
<event>
 4    1  0.4903958E-004  0.1000000E+04  0.7546771E-02  0.8684367E-01
         11   -1    0    0    0    0  0.00000000000E+00  0.00000000000E+00  0.50000000000E+03  0.50000000000E+03  0.00000000000E+00 0. -1.
        -11   -1    0    0    0    0 -0.00000000000E+00 -0.00000000000E+00 -0.50000000000E+03  0.50000000000E+03  0.00000000000E+00 0.  1.
          5    1    1    2  501    0  0.13747565012E+03 -0.12638683248E+03  0.46379383804E+03  0.50000000000E+03  0.47000000000E+01 0. -1.
         -5    1    1    2    0  501 -0.13747565012E+03  0.12638683248E+03 -0.46379383804E+03  0.50000000000E+03  0.47000000000E+01 0.  1.
</event>
<event>
 4    1  0.4903958E-004  0.1000000E+04  0.7546771E-02  0.8684367E-01
         11   -1    0    0    0    0  0.00000000000E+00  0.00000000000E+00  0.50000000000E+03  0.50000000000E+03  0.00000000000E+00 0. -1.
        -11   -1    0    0    0    0 -0.00000000000E+00 -0.00000000000E+00 -0.50000000000E+03  0.50000000000E+03  0.00000000000E+00 0.  1.
          5    1    1    2  501    0 -0.49294181875E+03 -0.44958355140E+02 -0.70462895444E+02  0.50000000000E+03  0.47000000000E+01 0. -1.
         -5    1    1    2    0  501  0.49294181875E+03  0.44958355140E+02  0.70462895444E+02  0.50000000000E+03  0.47000000000E+01 0.  1.
</event>
<event>
 4    1  0.4903958E-004  0.1000000E+04  0.7546771E-02  0.8684367E-01
         11   -1    0    0    0    0  0.00000000000E+00  0.00000000000E+00  0.50000000000E+03  0.50000000000E+03  0.00000000000E+00 0. -1.
        -11   -1    0    0    0    0 -0.00000000000E+00 -0.00000000000E+00 -0.50000000000E+03  0.50000000000E+03  0.00000000000E+00 0.  1.
          5    1    1    2  501    0 -0.45362953997E+03  0.22094746367E+02 -0.20906930107E+03  0.50000000000E+03  0.47000000000E+01 0. -1.
         -5    1    1    2    0  501  0.45362953997E+03 -0.22094746367E+02  0.20906930107E+03  0.50000000000E+03  0.47000000000E+01 0.  1.
</event>
<event>
 4    1  0.4903958E-004  0.1000000E+04  0.7546771E-02  0.8684367E-01
         11   -1    0    0    0    0  0.00000000000E+00  0.00000000000E+00  0.50000000000E+03  0.50000000000E+03  0.00000000000E+00 0.  1.
        -11   -1    0    0    0    0 -0.00000000000E+00 -0.00000000000E+00 -0.50000000000E+03  0.50000000000E+03  0.00000000000E+00 0. -1.
          5    1    1    2  501    0 -0.20152224772E+03  0.78734258561E+02  0.45074117873E+03  0.50000000000E+03  0.47000000000E+01 0.  1.
         -5    1    1    2    0  501  0.20152224772E+03 -0.78734258561E+02 -0.45074117873E+03  0.50000000000E+03  0.47000000000E+01 0. -1.
</event>
<event>
 4    1  0.4903958E-004  0.1000000E+04  0.7546771E-02  0.8684367E-01
         11   -1    0    0    0    0  0.00000000000E+00  0.00000000000E+00  0.50000000000E+03  0.50000000000E+03  0.00000000000E+00 0. -1.
        -11   -1    0    0    0    0 -0.00000000000E+00 -0.00000000000E+00 -0.50000000000E+03  0.50000000000E+03  0.00000000000E+00 0.  1.
          5    1    1    2  501    0 -0.42141478812E+03 -0.23324934413E+03  0.13409783673E+03  0.50000000000E+03  0.47000000000E+01 0. -1.
         -5    1    1    2    0  501  0.42141478812E+03  0.23324934413E+03 -0.13409783673E+03  0.50000000000E+03  0.47000000000E+01 0.  1.
</event>
<event>
 4    1  0.4903958E-004  0.1000000E+04  0.7546771E-02  0.8684367E-01
         11   -1    0    0    0    0  0.00000000000E+00  0.00000000000E+00  0.50000000000E+03  0.50000000000E+03  0.00000000000E+00 0. -1.
        -11   -1    0    0    0    0 -0.00000000000E+00 -0.00000000000E+00 -0.50000000000E+03  0.50000000000E+03  0.00000000000E+00 0.  1.
          5    1    1    2  501    0  0.41150451306E+03 -0.14308467446E+03  0.24529313416E+03  0.50000000000E+03  0.47000000000E+01 0. -1.
         -5    1    1    2    0  501 -0.41150451306E+03  0.14308467446E+03 -0.24529313416E+03  0.50000000000E+03  0.47000000000E+01 0.  1.
</event>
<event>
 4    1  0.4903958E-004  0.1000000E+04  0.7546771E-02  0.8684367E-01
         11   -1    0    0    0    0  0.00000000000E+00  0.00000000000E+00  0.50000000000E+03  0.50000000000E+03  0.00000000000E+00 0. -1.
        -11   -1    0    0    0    0 -0.00000000000E+00 -0.00000000000E+00 -0.50000000000E+03  0.50000000000E+03  0.00000000000E+00 0.  1.
          5    1    1    2  501    0  0.41477046777E+03  0.14700671170E+02  0.27879608916E+03  0.50000000000E+03  0.47000000000E+01 0. -1.
         -5    1    1    2    0  501 -0.41477046777E+03 -0.14700671170E+02 -0.27879608916E+03  0.50000000000E+03  0.47000000000E+01 0.  1.
</event>
<event>
 4    1  0.4903958E-004  0.1000000E+04  0.7546771E-02  0.8684367E-01
         11   -1    0    0    0    0  0.00000000000E+00  0.00000000000E+00  0.50000000000E+03  0.50000000000E+03  0.00000000000E+00 0. -1.
        -11   -1    0    0    0    0 -0.00000000000E+00 -0.00000000000E+00 -0.50000000000E+03  0.50000000000E+03  0.00000000000E+00 0.  1.
          5    1    1    2  501    0 -0.22534219907E+03 -0.30571939231E+03  0.32516835099E+03  0.50000000000E+03  0.47000000000E+01 0. -1.
         -5    1    1    2    0  501  0.22534219907E+03  0.30571939231E+03 -0.32516835099E+03  0.50000000000E+03  0.47000000000E+01 0.  1.
</event>
<event>
 4    1  0.4903958E-004  0.1000000E+04  0.7546771E-02  0.8684367E-01
         11   -1    0    0    0    0  0.00000000000E+00  0.00000000000E+00  0.50000000000E+03  0.50000000000E+03  0.00000000000E+00 0. -1.
        -11   -1    0    0    0    0 -0.00000000000E+00 -0.00000000000E+00 -0.50000000000E+03  0.50000000000E+03  0.00000000000E+00 0.  1.
          5    1    1    2  501    0 -0.38501941698E+03  0.31621200202E+03  0.41808232733E+02  0.50000000000E+03  0.47000000000E+01 0. -1.
         -5    1    1    2    0  501  0.38501941698E+03 -0.31621200202E+03 -0.41808232733E+02  0.50000000000E+03  0.47000000000E+01 0.  1.
</event>
<event>
 4    1  0.4903958E-004  0.1000000E+04  0.7546771E-02  0.8684367E-01
         11   -1    0    0    0    0  0.00000000000E+00  0.00000000000E+00  0.50000000000E+03  0.50000000000E+03  0.00000000000E+00 0. -1.
        -11   -1    0    0    0    0 -0.00000000000E+00 -0.00000000000E+00 -0.50000000000E+03  0.50000000000E+03  0.00000000000E+00 0.  1.
          5    1    1    2  501    0  0.18143762942E+03  0.21560279243E+03  0.41300572941E+03  0.50000000000E+03  0.47000000000E+01 0. -1.
         -5    1    1    2    0  501 -0.18143762942E+03 -0.21560279243E+03 -0.41300572941E+03  0.50000000000E+03  0.47000000000E+01 0.  1.
</event>
<event>
 4    1  0.4903958E-004  0.1000000E+04  0.7546771E-02  0.8684367E-01
         11   -1    0    0    0    0  0.00000000000E+00  0.00000000000E+00  0.50000000000E+03  0.50000000000E+03  0.00000000000E+00 0. -1.
        -11   -1    0    0    0    0 -0.00000000000E+00 -0.00000000000E+00 -0.50000000000E+03  0.50000000000E+03  0.00000000000E+00 0.  1.
          5    1    1    2  501    0  0.26578182450E+03 -0.39627818467E+03  0.14933697507E+03  0.50000000000E+03  0.47000000000E+01 0. -1.
         -5    1    1    2    0  501 -0.26578182450E+03  0.39627818467E+03 -0.14933697507E+03  0.50000000000E+03  0.47000000000E+01 0.  1.
</event>
<event>
 4    1  0.4903958E-004  0.1000000E+04  0.7546771E-02  0.8684367E-01
         11   -1    0    0    0    0  0.00000000000E+00  0.00000000000E+00  0.50000000000E+03  0.50000000000E+03  0.00000000000E+00 0. -1.
        -11   -1    0    0    0    0 -0.00000000000E+00 -0.00000000000E+00 -0.50000000000E+03  0.50000000000E+03  0.00000000000E+00 0.  1.
          5    1    1    2  501    0  0.30667719795E+03  0.39462904219E+03  0.13961565862E+02  0.50000000000E+03  0.47000000000E+01 0. -1.
         -5    1    1    2    0  501 -0.30667719795E+03 -0.39462904219E+03 -0.13961565862E+02  0.50000000000E+03  0.47000000000E+01 0.  1.
</event>
<event>
 4    1  0.4903958E-004  0.1000000E+04  0.7546771E-02  0.8684367E-01
         11   -1    0    0    0    0  0.00000000000E+00  0.00000000000E+00  0.50000000000E+03  0.50000000000E+03  0.00000000000E+00 0.  1.
        -11   -1    0    0    0    0 -0.00000000000E+00 -0.00000000000E+00 -0.50000000000E+03  0.50000000000E+03  0.00000000000E+00 0. -1.
          5    1    1    2  501    0 -0.30764861522E+03  0.13132008592E+03  0.37159827043E+03  0.50000000000E+03  0.47000000000E+01 0.  1.
         -5    1    1    2    0  501  0.30764861522E+03 -0.13132008592E+03 -0.37159827043E+03  0.50000000000E+03  0.47000000000E+01 0. -1.
</event>
<event>
 4    1  0.4903958E-004  0.1000000E+04  0.7546771E-02  0.8684367E-01
         11   -1    0    0    0    0  0.00000000000E+00  0.00000000000E+00  0.50000000000E+03  0.50000000000E+03  0.00000000000E+00 0. -1.
        -11   -1    0    0    0    0 -0.00000000000E+00 -0.00000000000E+00 -0.50000000000E+03  0.50000000000E+03  0.00000000000E+00 0.  1.
          5    1    1    2  501    0  0.16286517932E+03 -0.46889598611E+03  0.59911581276E+02  0.50000000000E+03  0.47000000000E+01 0. -1.
         -5    1    1    2    0  501 -0.16286517932E+03  0.46889598611E+03 -0.59911581276E+02  0.50000000000E+03  0.47000000000E+01 0.  1.
</event>
<event>
 4    1  0.4903958E-004  0.1000000E+04  0.7546771E-02  0.8684367E-01
         11   -1    0    0    0    0  0.00000000000E+00  0.00000000000E+00  0.50000000000E+03  0.50000000000E+03  0.00000000000E+00 0. -1.
        -11   -1    0    0    0    0 -0.00000000000E+00 -0.00000000000E+00 -0.50000000000E+03  0.50000000000E+03  0.00000000000E+00 0.  1.
          5    1    1    2  501    0  0.31827019506E+03 -0.25763185139E+02  0.38473140141E+03  0.50000000000E+03  0.47000000000E+01 0. -1.
         -5    1    1    2    0  501 -0.31827019506E+03  0.25763185139E+02 -0.38473140141E+03  0.50000000000E+03  0.47000000000E+01 0.  1.
</event>
<event>
 4    1  0.4903958E-004  0.1000000E+04  0.7546771E-02  0.8684367E-01
         11   -1    0    0    0    0  0.00000000000E+00  0.00000000000E+00  0.50000000000E+03  0.50000000000E+03  0.00000000000E+00 0. -1.
        -11   -1    0    0    0    0 -0.00000000000E+00 -0.00000000000E+00 -0.50000000000E+03  0.50000000000E+03  0.00000000000E+00 0.  1.
          5    1    1    2  501    0 -0.22281496621E+03 -0.15239099172E+03  0.42084247228E+03  0.50000000000E+03  0.47000000000E+01 0. -1.
         -5    1    1    2    0  501  0.22281496621E+03  0.15239099172E+03 -0.42084247228E+03  0.50000000000E+03  0.47000000000E+01 0.  1.
</event>
<event>
 4    1  0.4903958E-004  0.1000000E+04  0.7546771E-02  0.8684367E-01
         11   -1    0    0    0    0  0.00000000000E+00  0.00000000000E+00  0.50000000000E+03  0.50000000000E+03  0.00000000000E+00 0. -1.
        -11   -1    0    0    0    0 -0.00000000000E+00 -0.00000000000E+00 -0.50000000000E+03  0.50000000000E+03  0.00000000000E+00 0.  1.
          5    1    1    2  501    0  0.24001481063E+03 -0.40355526308E+03  0.17179624652E+03  0.50000000000E+03  0.47000000000E+01 0. -1.
         -5    1    1    2    0  501 -0.24001481063E+03  0.40355526308E+03 -0.17179624652E+03  0.50000000000E+03  0.47000000000E+01 0.  1.
</event>
<event>
 4    1  0.4903958E-004  0.1000000E+04  0.7546771E-02  0.8684367E-01
         11   -1    0    0    0    0  0.00000000000E+00  0.00000000000E+00  0.50000000000E+03  0.50000000000E+03  0.00000000000E+00 0. -1.
        -11   -1    0    0    0    0 -0.00000000000E+00 -0.00000000000E+00 -0.50000000000E+03  0.50000000000E+03  0.00000000000E+00 0.  1.
          5    1    1    2  501    0  0.21212765029E+03 -0.44853643479E+03  0.61602245466E+02  0.50000000000E+03  0.47000000000E+01 0. -1.
         -5    1    1    2    0  501 -0.21212765029E+03  0.44853643479E+03 -0.61602245466E+02  0.50000000000E+03  0.47000000000E+01 0.  1.
</event>
<event>
 4    1  0.4903958E-004  0.1000000E+04  0.7546771E-02  0.8684367E-01
         11   -1    0    0    0    0  0.00000000000E+00  0.00000000000E+00  0.50000000000E+03  0.50000000000E+03  0.00000000000E+00 0.  1.
        -11   -1    0    0    0    0 -0.00000000000E+00 -0.00000000000E+00 -0.50000000000E+03  0.50000000000E+03  0.00000000000E+00 0. -1.
          5    1    1    2  501    0 -0.77441966820E+02 -0.49383424832E+03  0.10410905846E+02  0.50000000000E+03  0.47000000000E+01 0.  1.
         -5    1    1    2    0  501  0.77441966820E+02  0.49383424832E+03 -0.10410905846E+02  0.50000000000E+03  0.47000000000E+01 0. -1.
</event>
<event>
 4    1  0.4903958E-004  0.1000000E+04  0.7546771E-02  0.8684367E-01
         11   -1    0    0    0    0  0.00000000000E+00  0.00000000000E+00  0.50000000000E+03  0.50000000000E+03  0.00000000000E+00 0. -1.
        -11   -1    0    0    0    0 -0.00000000000E+00 -0.00000000000E+00 -0.50000000000E+03  0.50000000000E+03  0.00000000000E+00 0.  1.
          5    1    1    2  501    0  0.13047218630E+03 -0.17501613743E+03  0.44980470233E+03  0.50000000000E+03  0.47000000000E+01 0. -1.
         -5    1    1    2    0  501 -0.13047218630E+03  0.17501613743E+03 -0.44980470233E+03  0.50000000000E+03  0.47000000000E+01 0.  1.
</event>
<event>
 4    1  0.4903958E-004  0.1000000E+04  0.7546771E-02  0.8684367E-01
         11   -1    0    0    0    0  0.00000000000E+00  0.00000000000E+00  0.50000000000E+03  0.50000000000E+03  0.00000000000E+00 0.  1.
        -11   -1    0    0    0    0 -0.00000000000E+00 -0.00000000000E+00 -0.50000000000E+03  0.50000000000E+03  0.00000000000E+00 0. -1.
          5    1    1    2  501    0 -0.58203185389E+02  0.34625959580E+03  0.35594183728E+03  0.50000000000E+03  0.47000000000E+01 0.  1.
         -5    1    1    2    0  501  0.58203185389E+02 -0.34625959580E+03 -0.35594183728E+03  0.50000000000E+03  0.47000000000E+01 0. -1.
</event>
<event>
 4    1  0.4903958E-004  0.1000000E+04  0.7546771E-02  0.8684367E-01
         11   -1    0    0    0    0  0.00000000000E+00  0.00000000000E+00  0.50000000000E+03  0.50000000000E+03  0.00000000000E+00 0.  1.
        -11   -1    0    0    0    0 -0.00000000000E+00 -0.00000000000E+00 -0.50000000000E+03  0.50000000000E+03  0.00000000000E+00 0. -1.
          5    1    1    2  501    0  0.68044036374E+02  0.47475809306E+03  0.14125392805E+03  0.50000000000E+03  0.47000000000E+01 0.  1.
         -5    1    1    2    0  501 -0.68044036374E+02 -0.47475809306E+03 -0.14125392805E+03  0.50000000000E+03  0.47000000000E+01 0. -1.
</event>
<event>
 4    1  0.4903958E-004  0.1000000E+04  0.7546771E-02  0.8684367E-01
         11   -1    0    0    0    0  0.00000000000E+00  0.00000000000E+00  0.50000000000E+03  0.50000000000E+03  0.00000000000E+00 0. -1.
        -11   -1    0    0    0    0 -0.00000000000E+00 -0.00000000000E+00 -0.50000000000E+03  0.50000000000E+03  0.00000000000E+00 0.  1.
          5    1    1    2  501    0  0.76189240291E+02  0.37017456312E+03  0.32732843214E+03  0.50000000000E+03  0.47000000000E+01 0. -1.
         -5    1    1    2    0  501 -0.76189240291E+02 -0.37017456312E+03 -0.32732843214E+03  0.50000000000E+03  0.47000000000E+01 0.  1.
</event>
<event>
 4    1  0.4903958E-004  0.1000000E+04  0.7546771E-02  0.8684367E-01
         11   -1    0    0    0    0  0.00000000000E+00  0.00000000000E+00  0.50000000000E+03  0.50000000000E+03  0.00000000000E+00 0. -1.
        -11   -1    0    0    0    0 -0.00000000000E+00 -0.00000000000E+00 -0.50000000000E+03  0.50000000000E+03  0.00000000000E+00 0.  1.
          5    1    1    2  501    0 -0.16680773197E+03 -0.64043348865E+02  0.46695989123E+03  0.50000000000E+03  0.47000000000E+01 0. -1.
         -5    1    1    2    0  501  0.16680773197E+03  0.64043348865E+02 -0.46695989123E+03  0.50000000000E+03  0.47000000000E+01 0.  1.
</event>
<event>
 4    1  0.4903958E-004  0.1000000E+04  0.7546771E-02  0.8684367E-01
         11   -1    0    0    0    0  0.00000000000E+00  0.00000000000E+00  0.50000000000E+03  0.50000000000E+03  0.00000000000E+00 0. -1.
        -11   -1    0    0    0    0 -0.00000000000E+00 -0.00000000000E+00 -0.50000000000E+03  0.50000000000E+03  0.00000000000E+00 0.  1.
          5    1    1    2  501    0 -0.14337581382E+03 -0.47469774161E+03 -0.63901018165E+02  0.50000000000E+03  0.47000000000E+01 0.  1.
         -5    1    1    2    0  501  0.14337581382E+03  0.47469774161E+03  0.63901018165E+02  0.50000000000E+03  0.47000000000E+01 0. -1.
</event>
<event>
 4    1  0.4903958E-004  0.1000000E+04  0.7546771E-02  0.8684367E-01
         11   -1    0    0    0    0  0.00000000000E+00  0.00000000000E+00  0.50000000000E+03  0.50000000000E+03  0.00000000000E+00 0. -1.
        -11   -1    0    0    0    0 -0.00000000000E+00 -0.00000000000E+00 -0.50000000000E+03  0.50000000000E+03  0.00000000000E+00 0.  1.
          5    1    1    2  501    0  0.35414977424E+03 -0.12164266453E+03  0.33129882217E+03  0.50000000000E+03  0.47000000000E+01 0. -1.
         -5    1    1    2    0  501 -0.35414977424E+03  0.12164266453E+03 -0.33129882217E+03  0.50000000000E+03  0.47000000000E+01 0.  1.
</event>
<event>
 4    1  0.4903958E-004  0.1000000E+04  0.7546771E-02  0.8684367E-01
         11   -1    0    0    0    0  0.00000000000E+00  0.00000000000E+00  0.50000000000E+03  0.50000000000E+03  0.00000000000E+00 0. -1.
        -11   -1    0    0    0    0 -0.00000000000E+00 -0.00000000000E+00 -0.50000000000E+03  0.50000000000E+03  0.00000000000E+00 0.  1.
          5    1    1    2  501    0  0.23174354930E+03  0.43286571344E+03  0.94340402207E+02  0.50000000000E+03  0.47000000000E+01 0. -1.
         -5    1    1    2    0  501 -0.23174354930E+03 -0.43286571344E+03 -0.94340402207E+02  0.50000000000E+03  0.47000000000E+01 0.  1.
</event>
<event>
 4    1  0.4903958E-004  0.1000000E+04  0.7546771E-02  0.8684367E-01
         11   -1    0    0    0    0  0.00000000000E+00  0.00000000000E+00  0.50000000000E+03  0.50000000000E+03  0.00000000000E+00 0. -1.
        -11   -1    0    0    0    0 -0.00000000000E+00 -0.00000000000E+00 -0.50000000000E+03  0.50000000000E+03  0.00000000000E+00 0.  1.
          5    1    1    2  501    0  0.23716422410E+03 -0.41955824250E+03  0.13304856993E+03  0.50000000000E+03  0.47000000000E+01 0. -1.
         -5    1    1    2    0  501 -0.23716422410E+03  0.41955824250E+03 -0.13304856993E+03  0.50000000000E+03  0.47000000000E+01 0.  1.
</event>
<event>
 4    1  0.4903958E-004  0.1000000E+04  0.7546771E-02  0.8684367E-01
         11   -1    0    0    0    0  0.00000000000E+00  0.00000000000E+00  0.50000000000E+03  0.50000000000E+03  0.00000000000E+00 0. -1.
        -11   -1    0    0    0    0 -0.00000000000E+00 -0.00000000000E+00 -0.50000000000E+03  0.50000000000E+03  0.00000000000E+00 0.  1.
          5    1    1    2  501    0 -0.20487212644E+03 -0.29996912545E+03  0.34354598758E+03  0.50000000000E+03  0.47000000000E+01 0. -1.
         -5    1    1    2    0  501  0.20487212644E+03  0.29996912545E+03 -0.34354598758E+03  0.50000000000E+03  0.47000000000E+01 0.  1.
</event>
<event>
 4    1  0.4903958E-004  0.1000000E+04  0.7546771E-02  0.8684367E-01
         11   -1    0    0    0    0  0.00000000000E+00  0.00000000000E+00  0.50000000000E+03  0.50000000000E+03  0.00000000000E+00 0. -1.
        -11   -1    0    0    0    0 -0.00000000000E+00 -0.00000000000E+00 -0.50000000000E+03  0.50000000000E+03  0.00000000000E+00 0.  1.
          5    1    1    2  501    0  0.23505364283E+03 -0.10745722506E+03  0.42799607449E+03  0.50000000000E+03  0.47000000000E+01 0. -1.
         -5    1    1    2    0  501 -0.23505364283E+03  0.10745722506E+03 -0.42799607449E+03  0.50000000000E+03  0.47000000000E+01 0.  1.
</event>
<event>
 4    1  0.4903958E-004  0.1000000E+04  0.7546771E-02  0.8684367E-01
         11   -1    0    0    0    0  0.00000000000E+00  0.00000000000E+00  0.50000000000E+03  0.50000000000E+03  0.00000000000E+00 0. -1.
        -11   -1    0    0    0    0 -0.00000000000E+00 -0.00000000000E+00 -0.50000000000E+03  0.50000000000E+03  0.00000000000E+00 0.  1.
          5    1    1    2  501    0  0.43568575379E+03  0.22611819209E+03  0.95007353135E+02  0.50000000000E+03  0.47000000000E+01 0. -1.
         -5    1    1    2    0  501 -0.43568575379E+03 -0.22611819209E+03 -0.95007353135E+02  0.50000000000E+03  0.47000000000E+01 0.  1.
</event>
<event>
 4    1  0.4903958E-004  0.1000000E+04  0.7546771E-02  0.8684367E-01
         11   -1    0    0    0    0  0.00000000000E+00  0.00000000000E+00  0.50000000000E+03  0.50000000000E+03  0.00000000000E+00 0. -1.
        -11   -1    0    0    0    0 -0.00000000000E+00 -0.00000000000E+00 -0.50000000000E+03  0.50000000000E+03  0.00000000000E+00 0.  1.
          5    1    1    2  501    0  0.32137124345E+03 -0.25330110129E+02  0.38217380785E+03  0.50000000000E+03  0.47000000000E+01 0. -1.
         -5    1    1    2    0  501 -0.32137124345E+03  0.25330110129E+02 -0.38217380785E+03  0.50000000000E+03  0.47000000000E+01 0.  1.
</event>
<event>
 4    1  0.4903958E-004  0.1000000E+04  0.7546771E-02  0.8684367E-01
         11   -1    0    0    0    0  0.00000000000E+00  0.00000000000E+00  0.50000000000E+03  0.50000000000E+03  0.00000000000E+00 0.  1.
        -11   -1    0    0    0    0 -0.00000000000E+00 -0.00000000000E+00 -0.50000000000E+03  0.50000000000E+03  0.00000000000E+00 0. -1.
          5    1    1    2  501    0  0.25443096939E+03 -0.38351270725E+03  0.19534788248E+03  0.50000000000E+03  0.47000000000E+01 0.  1.
         -5    1    1    2    0  501 -0.25443096939E+03  0.38351270725E+03 -0.19534788248E+03  0.50000000000E+03  0.47000000000E+01 0. -1.
</event>
<event>
 4    1  0.4903958E-004  0.1000000E+04  0.7546771E-02  0.8684367E-01
         11   -1    0    0    0    0  0.00000000000E+00  0.00000000000E+00  0.50000000000E+03  0.50000000000E+03  0.00000000000E+00 0. -1.
        -11   -1    0    0    0    0 -0.00000000000E+00 -0.00000000000E+00 -0.50000000000E+03  0.50000000000E+03  0.00000000000E+00 0.  1.
          5    1    1    2  501    0 -0.57586050618E+02 -0.48928265290E+03  0.85230524754E+02  0.50000000000E+03  0.47000000000E+01 0. -1.
         -5    1    1    2    0  501  0.57586050618E+02  0.48928265290E+03 -0.85230524754E+02  0.50000000000E+03  0.47000000000E+01 0.  1.
</event>
<event>
 4    1  0.4903958E-004  0.1000000E+04  0.7546771E-02  0.8684367E-01
         11   -1    0    0    0    0  0.00000000000E+00  0.00000000000E+00  0.50000000000E+03  0.50000000000E+03  0.00000000000E+00 0. -1.
        -11   -1    0    0    0    0 -0.00000000000E+00 -0.00000000000E+00 -0.50000000000E+03  0.50000000000E+03  0.00000000000E+00 0.  1.
          5    1    1    2  501    0 -0.28942102046E+03  0.37484104044E+03  0.16033582668E+03  0.50000000000E+03  0.47000000000E+01 0. -1.
         -5    1    1    2    0  501  0.28942102046E+03 -0.37484104044E+03 -0.16033582668E+03  0.50000000000E+03  0.47000000000E+01 0.  1.
</event>
<event>
 4    1  0.4903958E-004  0.1000000E+04  0.7546771E-02  0.8684367E-01
         11   -1    0    0    0    0  0.00000000000E+00  0.00000000000E+00  0.50000000000E+03  0.50000000000E+03  0.00000000000E+00 0. -1.
        -11   -1    0    0    0    0 -0.00000000000E+00 -0.00000000000E+00 -0.50000000000E+03  0.50000000000E+03  0.00000000000E+00 0.  1.
          5    1    1    2  501    0  0.15637916848E+03 -0.27929536917E+02  0.47407109871E+03  0.50000000000E+03  0.47000000000E+01 0. -1.
         -5    1    1    2    0  501 -0.15637916848E+03  0.27929536917E+02 -0.47407109871E+03  0.50000000000E+03  0.47000000000E+01 0.  1.
</event>
<event>
 4    1  0.4903958E-004  0.1000000E+04  0.7546771E-02  0.8684367E-01
         11   -1    0    0    0    0  0.00000000000E+00  0.00000000000E+00  0.50000000000E+03  0.50000000000E+03  0.00000000000E+00 0.  1.
        -11   -1    0    0    0    0 -0.00000000000E+00 -0.00000000000E+00 -0.50000000000E+03  0.50000000000E+03  0.00000000000E+00 0. -1.
          5    1    1    2  501    0 -0.50513606598E+02 -0.49527958680E+03 -0.46091392333E+02  0.50000000000E+03  0.47000000000E+01 0.  1.
         -5    1    1    2    0  501  0.50513606598E+02  0.49527958680E+03  0.46091392333E+02  0.50000000000E+03  0.47000000000E+01 0. -1.
</event>
<event>
 4    1  0.4903958E-004  0.1000000E+04  0.7546771E-02  0.8684367E-01
         11   -1    0    0    0    0  0.00000000000E+00  0.00000000000E+00  0.50000000000E+03  0.50000000000E+03  0.00000000000E+00 0. -1.
        -11   -1    0    0    0    0 -0.00000000000E+00 -0.00000000000E+00 -0.50000000000E+03  0.50000000000E+03  0.00000000000E+00 0.  1.
          5    1    1    2  501    0 -0.40413287170E+03 -0.29099257902E+03  0.44473036369E+02  0.50000000000E+03  0.47000000000E+01 0. -1.
         -5    1    1    2    0  501  0.40413287170E+03  0.29099257902E+03 -0.44473036369E+02  0.50000000000E+03  0.47000000000E+01 0.  1.
</event>
<event>
 4    1  0.4903958E-004  0.1000000E+04  0.7546771E-02  0.8684367E-01
         11   -1    0    0    0    0  0.00000000000E+00  0.00000000000E+00  0.50000000000E+03  0.50000000000E+03  0.00000000000E+00 0. -1.
        -11   -1    0    0    0    0 -0.00000000000E+00 -0.00000000000E+00 -0.50000000000E+03  0.50000000000E+03  0.00000000000E+00 0.  1.
          5    1    1    2  501    0 -0.28202582865E+03 -0.28501231484E+03  0.29867594876E+03  0.50000000000E+03  0.47000000000E+01 0. -1.
         -5    1    1    2    0  501  0.28202582865E+03  0.28501231484E+03 -0.29867594876E+03  0.50000000000E+03  0.47000000000E+01 0.  1.
</event>
<event>
 4    1  0.4903958E-004  0.1000000E+04  0.7546771E-02  0.8684367E-01
         11   -1    0    0    0    0  0.00000000000E+00  0.00000000000E+00  0.50000000000E+03  0.50000000000E+03  0.00000000000E+00 0. -1.
        -11   -1    0    0    0    0 -0.00000000000E+00 -0.00000000000E+00 -0.50000000000E+03  0.50000000000E+03  0.00000000000E+00 0.  1.
          5    1    1    2  501    0  0.14660624403E+03  0.22525527844E+03  0.42159765031E+03  0.50000000000E+03  0.47000000000E+01 0. -1.
         -5    1    1    2    0  501 -0.14660624403E+03 -0.22525527844E+03 -0.42159765031E+03  0.50000000000E+03  0.47000000000E+01 0.  1.
</event>
<event>
 4    1  0.4903958E-004  0.1000000E+04  0.7546771E-02  0.8684367E-01
         11   -1    0    0    0    0  0.00000000000E+00  0.00000000000E+00  0.50000000000E+03  0.50000000000E+03  0.00000000000E+00 0. -1.
        -11   -1    0    0    0    0 -0.00000000000E+00 -0.00000000000E+00 -0.50000000000E+03  0.50000000000E+03  0.00000000000E+00 0.  1.
          5    1    1    2  501    0 -0.34461220628E+03  0.33558760630E+03  0.13638656745E+03  0.50000000000E+03  0.47000000000E+01 0. -1.
         -5    1    1    2    0  501  0.34461220628E+03 -0.33558760630E+03 -0.13638656745E+03  0.50000000000E+03  0.47000000000E+01 0.  1.
</event>
<event>
 4    1  0.4903958E-004  0.1000000E+04  0.7546771E-02  0.8684367E-01
         11   -1    0    0    0    0  0.00000000000E+00  0.00000000000E+00  0.50000000000E+03  0.50000000000E+03  0.00000000000E+00 0.  1.
        -11   -1    0    0    0    0 -0.00000000000E+00 -0.00000000000E+00 -0.50000000000E+03  0.50000000000E+03  0.00000000000E+00 0. -1.
          5    1    1    2  501    0 -0.31081996211E+03 -0.27715678395E+03  0.27668208881E+03  0.50000000000E+03  0.47000000000E+01 0.  1.
         -5    1    1    2    0  501  0.31081996211E+03  0.27715678395E+03 -0.27668208881E+03  0.50000000000E+03  0.47000000000E+01 0. -1.
</event>
<event>
 4    1  0.4903958E-004  0.1000000E+04  0.7546771E-02  0.8684367E-01
         11   -1    0    0    0    0  0.00000000000E+00  0.00000000000E+00  0.50000000000E+03  0.50000000000E+03  0.00000000000E+00 0. -1.
        -11   -1    0    0    0    0 -0.00000000000E+00 -0.00000000000E+00 -0.50000000000E+03  0.50000000000E+03  0.00000000000E+00 0.  1.
          5    1    1    2  501    0 -0.33625331253E+03  0.19761203167E+03  0.31282759589E+03  0.50000000000E+03  0.47000000000E+01 0. -1.
         -5    1    1    2    0  501  0.33625331253E+03 -0.19761203167E+03 -0.31282759589E+03  0.50000000000E+03  0.47000000000E+01 0.  1.
</event>
<event>
 4    1  0.4903958E-004  0.1000000E+04  0.7546771E-02  0.8684367E-01
         11   -1    0    0    0    0  0.00000000000E+00  0.00000000000E+00  0.50000000000E+03  0.50000000000E+03  0.00000000000E+00 0. -1.
        -11   -1    0    0    0    0 -0.00000000000E+00 -0.00000000000E+00 -0.50000000000E+03  0.50000000000E+03  0.00000000000E+00 0.  1.
          5    1    1    2  501    0 -0.27770587976E+03 -0.20309544890E+03  0.36278036466E+03  0.50000000000E+03  0.47000000000E+01 0. -1.
         -5    1    1    2    0  501  0.27770587976E+03  0.20309544890E+03 -0.36278036466E+03  0.50000000000E+03  0.47000000000E+01 0.  1.
</event>
<event>
 4    1  0.4903958E-004  0.1000000E+04  0.7546771E-02  0.8684367E-01
         11   -1    0    0    0    0  0.00000000000E+00  0.00000000000E+00  0.50000000000E+03  0.50000000000E+03  0.00000000000E+00 0. -1.
        -11   -1    0    0    0    0 -0.00000000000E+00 -0.00000000000E+00 -0.50000000000E+03  0.50000000000E+03  0.00000000000E+00 0.  1.
          5    1    1    2  501    0  0.24543447903E+02  0.37793556519E+03  0.32640502099E+03  0.50000000000E+03  0.47000000000E+01 0. -1.
         -5    1    1    2    0  501 -0.24543447903E+02 -0.37793556519E+03 -0.32640502099E+03  0.50000000000E+03  0.47000000000E+01 0.  1.
</event>
<event>
 4    1  0.4903958E-004  0.1000000E+04  0.7546771E-02  0.8684367E-01
         11   -1    0    0    0    0  0.00000000000E+00  0.00000000000E+00  0.50000000000E+03  0.50000000000E+03  0.00000000000E+00 0. -1.
        -11   -1    0    0    0    0 -0.00000000000E+00 -0.00000000000E+00 -0.50000000000E+03  0.50000000000E+03  0.00000000000E+00 0.  1.
          5    1    1    2  501    0 -0.32493188799E+03 -0.29590342580E+03  0.23840792933E+03  0.50000000000E+03  0.47000000000E+01 0. -1.
         -5    1    1    2    0  501  0.32493188799E+03  0.29590342580E+03 -0.23840792933E+03  0.50000000000E+03  0.47000000000E+01 0.  1.
</event>
<event>
 4    1  0.4903958E-004  0.1000000E+04  0.7546771E-02  0.8684367E-01
         11   -1    0    0    0    0  0.00000000000E+00  0.00000000000E+00  0.50000000000E+03  0.50000000000E+03  0.00000000000E+00 0. -1.
        -11   -1    0    0    0    0 -0.00000000000E+00 -0.00000000000E+00 -0.50000000000E+03  0.50000000000E+03  0.00000000000E+00 0.  1.
          5    1    1    2  501    0  0.74393921016E+02 -0.42423535331E+03  0.25390513881E+03  0.50000000000E+03  0.47000000000E+01 0. -1.
         -5    1    1    2    0  501 -0.74393921016E+02  0.42423535331E+03 -0.25390513881E+03  0.50000000000E+03  0.47000000000E+01 0.  1.
</event>
<event>
 4    1  0.4903958E-004  0.1000000E+04  0.7546771E-02  0.8684367E-01
         11   -1    0    0    0    0  0.00000000000E+00  0.00000000000E+00  0.50000000000E+03  0.50000000000E+03  0.00000000000E+00 0. -1.
        -11   -1    0    0    0    0 -0.00000000000E+00 -0.00000000000E+00 -0.50000000000E+03  0.50000000000E+03  0.00000000000E+00 0.  1.
          5    1    1    2  501    0 -0.17088283300E+03 -0.53575499527E+02  0.46680470567E+03  0.50000000000E+03  0.47000000000E+01 0. -1.
         -5    1    1    2    0  501  0.17088283300E+03  0.53575499527E+02 -0.46680470567E+03  0.50000000000E+03  0.47000000000E+01 0.  1.
</event>
<event>
 4    1  0.4903958E-004  0.1000000E+04  0.7546771E-02  0.8684367E-01
         11   -1    0    0    0    0  0.00000000000E+00  0.00000000000E+00  0.50000000000E+03  0.50000000000E+03  0.00000000000E+00 0. -1.
        -11   -1    0    0    0    0 -0.00000000000E+00 -0.00000000000E+00 -0.50000000000E+03  0.50000000000E+03  0.00000000000E+00 0.  1.
          5    1    1    2  501    0 -0.28912745526E+03  0.64985007258E+02  0.40269116385E+03  0.50000000000E+03  0.47000000000E+01 0. -1.
         -5    1    1    2    0  501  0.28912745526E+03 -0.64985007258E+02 -0.40269116385E+03  0.50000000000E+03  0.47000000000E+01 0.  1.
</event>
<event>
 4    1  0.4903958E-004  0.1000000E+04  0.7546771E-02  0.8684367E-01
         11   -1    0    0    0    0  0.00000000000E+00  0.00000000000E+00  0.50000000000E+03  0.50000000000E+03  0.00000000000E+00 0.  1.
        -11   -1    0    0    0    0 -0.00000000000E+00 -0.00000000000E+00 -0.50000000000E+03  0.50000000000E+03  0.00000000000E+00 0. -1.
          5    1    1    2  501    0 -0.34543894165E+03 -0.32127511926E+03  0.16562652365E+03  0.50000000000E+03  0.47000000000E+01 0.  1.
         -5    1    1    2    0  501  0.34543894165E+03  0.32127511926E+03 -0.16562652365E+03  0.50000000000E+03  0.47000000000E+01 0. -1.
</event>
<event>
 4    1  0.4903958E-004  0.1000000E+04  0.7546771E-02  0.8684367E-01
         11   -1    0    0    0    0  0.00000000000E+00  0.00000000000E+00  0.50000000000E+03  0.50000000000E+03  0.00000000000E+00 0.  1.
        -11   -1    0    0    0    0 -0.00000000000E+00 -0.00000000000E+00 -0.50000000000E+03  0.50000000000E+03  0.00000000000E+00 0. -1.
          5    1    1    2  501    0  0.30677170310E+02 -0.45698481200E+03  0.20050362298E+03  0.50000000000E+03  0.47000000000E+01 0.  1.
         -5    1    1    2    0  501 -0.30677170310E+02  0.45698481200E+03 -0.20050362298E+03  0.50000000000E+03  0.47000000000E+01 0. -1.
</event>
<event>
 4    1  0.4903958E-004  0.1000000E+04  0.7546771E-02  0.8684367E-01
         11   -1    0    0    0    0  0.00000000000E+00  0.00000000000E+00  0.50000000000E+03  0.50000000000E+03  0.00000000000E+00 0. -1.
        -11   -1    0    0    0    0 -0.00000000000E+00 -0.00000000000E+00 -0.50000000000E+03  0.50000000000E+03  0.00000000000E+00 0.  1.
          5    1    1    2  501    0  0.72115957793E+02 -0.94345551718E+02  0.48567078922E+03  0.50000000000E+03  0.47000000000E+01 0. -1.
         -5    1    1    2    0  501 -0.72115957793E+02  0.94345551718E+02 -0.48567078922E+03  0.50000000000E+03  0.47000000000E+01 0.  1.
</event>
<event>
 4    1  0.4903958E-004  0.1000000E+04  0.7546771E-02  0.8684367E-01
         11   -1    0    0    0    0  0.00000000000E+00  0.00000000000E+00  0.50000000000E+03  0.50000000000E+03  0.00000000000E+00 0. -1.
        -11   -1    0    0    0    0 -0.00000000000E+00 -0.00000000000E+00 -0.50000000000E+03  0.50000000000E+03  0.00000000000E+00 0.  1.
          5    1    1    2  501    0 -0.38771892862E+03  0.10054592294E+03  0.29923646130E+03  0.50000000000E+03  0.47000000000E+01 0. -1.
         -5    1    1    2    0  501  0.38771892862E+03 -0.10054592294E+03 -0.29923646130E+03  0.50000000000E+03  0.47000000000E+01 0.  1.
</event>
<event>
 4    1  0.4903958E-004  0.1000000E+04  0.7546771E-02  0.8684367E-01
         11   -1    0    0    0    0  0.00000000000E+00  0.00000000000E+00  0.50000000000E+03  0.50000000000E+03  0.00000000000E+00 0. -1.
        -11   -1    0    0    0    0 -0.00000000000E+00 -0.00000000000E+00 -0.50000000000E+03  0.50000000000E+03  0.00000000000E+00 0.  1.
          5    1    1    2  501    0 -0.24184938403E+03  0.26983244132E+03  0.34449562995E+03  0.50000000000E+03  0.47000000000E+01 0. -1.
         -5    1    1    2    0  501  0.24184938403E+03 -0.26983244132E+03 -0.34449562995E+03  0.50000000000E+03  0.47000000000E+01 0.  1.
</event>
<event>
 4    1  0.4903958E-004  0.1000000E+04  0.7546771E-02  0.8684367E-01
         11   -1    0    0    0    0  0.00000000000E+00  0.00000000000E+00  0.50000000000E+03  0.50000000000E+03  0.00000000000E+00 0. -1.
        -11   -1    0    0    0    0 -0.00000000000E+00 -0.00000000000E+00 -0.50000000000E+03  0.50000000000E+03  0.00000000000E+00 0.  1.
          5    1    1    2  501    0 -0.23242730548E+02  0.49157455494E+03 -0.88273112609E+02  0.50000000000E+03  0.47000000000E+01 0. -1.
         -5    1    1    2    0  501  0.23242730548E+02 -0.49157455494E+03  0.88273112609E+02  0.50000000000E+03  0.47000000000E+01 0.  1.
</event>
<event>
 4    1  0.4903958E-004  0.1000000E+04  0.7546771E-02  0.8684367E-01
         11   -1    0    0    0    0  0.00000000000E+00  0.00000000000E+00  0.50000000000E+03  0.50000000000E+03  0.00000000000E+00 0. -1.
        -11   -1    0    0    0    0 -0.00000000000E+00 -0.00000000000E+00 -0.50000000000E+03  0.50000000000E+03  0.00000000000E+00 0.  1.
          5    1    1    2  501    0 -0.21990736728E+03  0.33965081661E+03  0.29369368837E+03  0.50000000000E+03  0.47000000000E+01 0. -1.
         -5    1    1    2    0  501  0.21990736728E+03 -0.33965081661E+03 -0.29369368837E+03  0.50000000000E+03  0.47000000000E+01 0.  1.
</event>
<event>
 4    1  0.4903958E-004  0.1000000E+04  0.7546771E-02  0.8684367E-01
         11   -1    0    0    0    0  0.00000000000E+00  0.00000000000E+00  0.50000000000E+03  0.50000000000E+03  0.00000000000E+00 0. -1.
        -11   -1    0    0    0    0 -0.00000000000E+00 -0.00000000000E+00 -0.50000000000E+03  0.50000000000E+03  0.00000000000E+00 0.  1.
          5    1    1    2  501    0 -0.33975213869E+02 -0.42430880507E+03  0.26227015228E+03  0.50000000000E+03  0.47000000000E+01 0. -1.
         -5    1    1    2    0  501  0.33975213869E+02  0.42430880507E+03 -0.26227015228E+03  0.50000000000E+03  0.47000000000E+01 0.  1.
</event>
<event>
 4    1  0.4903958E-004  0.1000000E+04  0.7546771E-02  0.8684367E-01
         11   -1    0    0    0    0  0.00000000000E+00  0.00000000000E+00  0.50000000000E+03  0.50000000000E+03  0.00000000000E+00 0. -1.
        -11   -1    0    0    0    0 -0.00000000000E+00 -0.00000000000E+00 -0.50000000000E+03  0.50000000000E+03  0.00000000000E+00 0.  1.
          5    1    1    2  501    0 -0.42610141534E+03 -0.15656401238E+02  0.26109456323E+03  0.50000000000E+03  0.47000000000E+01 0. -1.
         -5    1    1    2    0  501  0.42610141534E+03  0.15656401238E+02 -0.26109456323E+03  0.50000000000E+03  0.47000000000E+01 0.  1.
</event>
<event>
 4    1  0.4903958E-004  0.1000000E+04  0.7546771E-02  0.8684367E-01
         11   -1    0    0    0    0  0.00000000000E+00  0.00000000000E+00  0.50000000000E+03  0.50000000000E+03  0.00000000000E+00 0. -1.
        -11   -1    0    0    0    0 -0.00000000000E+00 -0.00000000000E+00 -0.50000000000E+03  0.50000000000E+03  0.00000000000E+00 0.  1.
          5    1    1    2  501    0 -0.97709486924E+02  0.47856005895E+03  0.10682245147E+03  0.50000000000E+03  0.47000000000E+01 0. -1.
         -5    1    1    2    0  501  0.97709486924E+02 -0.47856005895E+03 -0.10682245147E+03  0.50000000000E+03  0.47000000000E+01 0.  1.
</event>
<event>
 4    1  0.4903958E-004  0.1000000E+04  0.7546771E-02  0.8684367E-01
         11   -1    0    0    0    0  0.00000000000E+00  0.00000000000E+00  0.50000000000E+03  0.50000000000E+03  0.00000000000E+00 0.  1.
        -11   -1    0    0    0    0 -0.00000000000E+00 -0.00000000000E+00 -0.50000000000E+03  0.50000000000E+03  0.00000000000E+00 0. -1.
          5    1    1    2  501    0 -0.32039441892E+03 -0.28004434041E+03 -0.26248903544E+03  0.50000000000E+03  0.47000000000E+01 0.  1.
         -5    1    1    2    0  501  0.32039441892E+03  0.28004434041E+03  0.26248903544E+03  0.50000000000E+03  0.47000000000E+01 0. -1.
</event>
<event>
 4    1  0.4903958E-004  0.1000000E+04  0.7546771E-02  0.8684367E-01
         11   -1    0    0    0    0  0.00000000000E+00  0.00000000000E+00  0.50000000000E+03  0.50000000000E+03  0.00000000000E+00 0. -1.
        -11   -1    0    0    0    0 -0.00000000000E+00 -0.00000000000E+00 -0.50000000000E+03  0.50000000000E+03  0.00000000000E+00 0.  1.
          5    1    1    2  501    0 -0.34205179386E+03 -0.36403432276E+03  0.21389066629E+02  0.50000000000E+03  0.47000000000E+01 0. -1.
         -5    1    1    2    0  501  0.34205179386E+03  0.36403432276E+03 -0.21389066629E+02  0.50000000000E+03  0.47000000000E+01 0.  1.
</event>
<event>
 4    1  0.4903958E-004  0.1000000E+04  0.7546771E-02  0.8684367E-01
         11   -1    0    0    0    0  0.00000000000E+00  0.00000000000E+00  0.50000000000E+03  0.50000000000E+03  0.00000000000E+00 0. -1.
        -11   -1    0    0    0    0 -0.00000000000E+00 -0.00000000000E+00 -0.50000000000E+03  0.50000000000E+03  0.00000000000E+00 0.  1.
          5    1    1    2  501    0  0.10367909012E+03  0.39154933746E+02  0.48754020084E+03  0.50000000000E+03  0.47000000000E+01 0. -1.
         -5    1    1    2    0  501 -0.10367909012E+03 -0.39154933746E+02 -0.48754020084E+03  0.50000000000E+03  0.47000000000E+01 0.  1.
</event>
<event>
 4    1  0.4903958E-004  0.1000000E+04  0.7546771E-02  0.8684367E-01
         11   -1    0    0    0    0  0.00000000000E+00  0.00000000000E+00  0.50000000000E+03  0.50000000000E+03  0.00000000000E+00 0.  1.
        -11   -1    0    0    0    0 -0.00000000000E+00 -0.00000000000E+00 -0.50000000000E+03  0.50000000000E+03  0.00000000000E+00 0. -1.
          5    1    1    2  501    0  0.36202769623E+02  0.21723227163E+03  0.44886235043E+03  0.50000000000E+03  0.47000000000E+01 0.  1.
         -5    1    1    2    0  501 -0.36202769623E+02 -0.21723227163E+03 -0.44886235043E+03  0.50000000000E+03  0.47000000000E+01 0. -1.
</event>
<event>
 4    1  0.4903958E-004  0.1000000E+04  0.7546771E-02  0.8684367E-01
         11   -1    0    0    0    0  0.00000000000E+00  0.00000000000E+00  0.50000000000E+03  0.50000000000E+03  0.00000000000E+00 0.  1.
        -11   -1    0    0    0    0 -0.00000000000E+00 -0.00000000000E+00 -0.50000000000E+03  0.50000000000E+03  0.00000000000E+00 0. -1.
          5    1    1    2  501    0  0.30563773710E+03  0.39145183194E+03  0.57697027061E+02  0.50000000000E+03  0.47000000000E+01 0.  1.
         -5    1    1    2    0  501 -0.30563773710E+03 -0.39145183194E+03 -0.57697027061E+02  0.50000000000E+03  0.47000000000E+01 0. -1.
</event>
<event>
 4    1  0.4903958E-004  0.1000000E+04  0.7546771E-02  0.8684367E-01
         11   -1    0    0    0    0  0.00000000000E+00  0.00000000000E+00  0.50000000000E+03  0.50000000000E+03  0.00000000000E+00 0.  1.
        -11   -1    0    0    0    0 -0.00000000000E+00 -0.00000000000E+00 -0.50000000000E+03  0.50000000000E+03  0.00000000000E+00 0. -1.
          5    1    1    2  501    0  0.40192393486E+03 -0.25701326068E+03  0.14959693989E+03  0.50000000000E+03  0.47000000000E+01 0.  1.
         -5    1    1    2    0  501 -0.40192393486E+03  0.25701326068E+03 -0.14959693989E+03  0.50000000000E+03  0.47000000000E+01 0. -1.
</event>
<event>
 4    1  0.4903958E-004  0.1000000E+04  0.7546771E-02  0.8684367E-01
         11   -1    0    0    0    0  0.00000000000E+00  0.00000000000E+00  0.50000000000E+03  0.50000000000E+03  0.00000000000E+00 0. -1.
        -11   -1    0    0    0    0 -0.00000000000E+00 -0.00000000000E+00 -0.50000000000E+03  0.50000000000E+03  0.00000000000E+00 0.  1.
          5    1    1    2  501    0  0.24426863247E+03 -0.22185158389E+03  0.37562297575E+03  0.50000000000E+03  0.47000000000E+01 0. -1.
         -5    1    1    2    0  501 -0.24426863247E+03  0.22185158389E+03 -0.37562297575E+03  0.50000000000E+03  0.47000000000E+01 0.  1.
</event>
<event>
 4    1  0.4903958E-004  0.1000000E+04  0.7546771E-02  0.8684367E-01
         11   -1    0    0    0    0  0.00000000000E+00  0.00000000000E+00  0.50000000000E+03  0.50000000000E+03  0.00000000000E+00 0. -1.
        -11   -1    0    0    0    0 -0.00000000000E+00 -0.00000000000E+00 -0.50000000000E+03  0.50000000000E+03  0.00000000000E+00 0.  1.
          5    1    1    2  501    0  0.38098202328E+03  0.11209974414E+03  0.30375031737E+03  0.50000000000E+03  0.47000000000E+01 0. -1.
         -5    1    1    2    0  501 -0.38098202328E+03 -0.11209974414E+03 -0.30375031737E+03  0.50000000000E+03  0.47000000000E+01 0.  1.
</event>
<event>
 4    1  0.4903958E-004  0.1000000E+04  0.7546771E-02  0.8684367E-01
         11   -1    0    0    0    0  0.00000000000E+00  0.00000000000E+00  0.50000000000E+03  0.50000000000E+03  0.00000000000E+00 0. -1.
        -11   -1    0    0    0    0 -0.00000000000E+00 -0.00000000000E+00 -0.50000000000E+03  0.50000000000E+03  0.00000000000E+00 0.  1.
          5    1    1    2  501    0 -0.41438591110E+03  0.59439126961E+02  0.27336645161E+03  0.50000000000E+03  0.47000000000E+01 0. -1.
         -5    1    1    2    0  501  0.41438591110E+03 -0.59439126961E+02 -0.27336645161E+03  0.50000000000E+03  0.47000000000E+01 0.  1.
</event>
<event>
 4    1  0.4903958E-004  0.1000000E+04  0.7546771E-02  0.8684367E-01
         11   -1    0    0    0    0  0.00000000000E+00  0.00000000000E+00  0.50000000000E+03  0.50000000000E+03  0.00000000000E+00 0. -1.
        -11   -1    0    0    0    0 -0.00000000000E+00 -0.00000000000E+00 -0.50000000000E+03  0.50000000000E+03  0.00000000000E+00 0.  1.
          5    1    1    2  501    0  0.45906629482E+03 -0.18862055857E+03  0.60484145393E+02  0.50000000000E+03  0.47000000000E+01 0. -1.
         -5    1    1    2    0  501 -0.45906629482E+03  0.18862055857E+03 -0.60484145393E+02  0.50000000000E+03  0.47000000000E+01 0.  1.
</event>
<event>
 4    1  0.4903958E-004  0.1000000E+04  0.7546771E-02  0.8684367E-01
         11   -1    0    0    0    0  0.00000000000E+00  0.00000000000E+00  0.50000000000E+03  0.50000000000E+03  0.00000000000E+00 0. -1.
        -11   -1    0    0    0    0 -0.00000000000E+00 -0.00000000000E+00 -0.50000000000E+03  0.50000000000E+03  0.00000000000E+00 0.  1.
          5    1    1    2  501    0 -0.69017422477E+02  0.98507751812E+02  0.48529447579E+03  0.50000000000E+03  0.47000000000E+01 0. -1.
         -5    1    1    2    0  501  0.69017422477E+02 -0.98507751812E+02 -0.48529447579E+03  0.50000000000E+03  0.47000000000E+01 0.  1.
</event>
<event>
 4    1  0.4903958E-004  0.1000000E+04  0.7546771E-02  0.8684367E-01
         11   -1    0    0    0    0  0.00000000000E+00  0.00000000000E+00  0.50000000000E+03  0.50000000000E+03  0.00000000000E+00 0.  1.
        -11   -1    0    0    0    0 -0.00000000000E+00 -0.00000000000E+00 -0.50000000000E+03  0.50000000000E+03  0.00000000000E+00 0. -1.
          5    1    1    2  501    0 -0.10427864032E+03  0.48532267182E+03 -0.59714147318E+02  0.50000000000E+03  0.47000000000E+01 0.  1.
         -5    1    1    2    0  501  0.10427864032E+03 -0.48532267182E+03  0.59714147318E+02  0.50000000000E+03  0.47000000000E+01 0. -1.
</event>
<event>
 4    1  0.4903958E-004  0.1000000E+04  0.7546771E-02  0.8684367E-01
         11   -1    0    0    0    0  0.00000000000E+00  0.00000000000E+00  0.50000000000E+03  0.50000000000E+03  0.00000000000E+00 0.  1.
        -11   -1    0    0    0    0 -0.00000000000E+00 -0.00000000000E+00 -0.50000000000E+03  0.50000000000E+03  0.00000000000E+00 0. -1.
          5    1    1    2  501    0 -0.32078365061E+03  0.34088041083E+03  0.17571654735E+03  0.50000000000E+03  0.47000000000E+01 0.  1.
         -5    1    1    2    0  501  0.32078365061E+03 -0.34088041083E+03 -0.17571654735E+03  0.50000000000E+03  0.47000000000E+01 0. -1.
</event>
<event>
 4    1  0.4903958E-004  0.1000000E+04  0.7546771E-02  0.8684367E-01
         11   -1    0    0    0    0  0.00000000000E+00  0.00000000000E+00  0.50000000000E+03  0.50000000000E+03  0.00000000000E+00 0. -1.
        -11   -1    0    0    0    0 -0.00000000000E+00 -0.00000000000E+00 -0.50000000000E+03  0.50000000000E+03  0.00000000000E+00 0.  1.
          5    1    1    2  501    0  0.30234830170E+03  0.39776042640E+03 -0.18709827519E+02  0.50000000000E+03  0.47000000000E+01 0. -1.
         -5    1    1    2    0  501 -0.30234830170E+03 -0.39776042640E+03  0.18709827519E+02  0.50000000000E+03  0.47000000000E+01 0.  1.
</event>
<event>
 4    1  0.4903958E-004  0.1000000E+04  0.7546771E-02  0.8684367E-01
         11   -1    0    0    0    0  0.00000000000E+00  0.00000000000E+00  0.50000000000E+03  0.50000000000E+03  0.00000000000E+00 0. -1.
        -11   -1    0    0    0    0 -0.00000000000E+00 -0.00000000000E+00 -0.50000000000E+03  0.50000000000E+03  0.00000000000E+00 0.  1.
          5    1    1    2  501    0  0.19256147087E+03  0.35237745707E+03 -0.29787265347E+03  0.50000000000E+03  0.47000000000E+01 0.  1.
         -5    1    1    2    0  501 -0.19256147087E+03 -0.35237745707E+03  0.29787265347E+03  0.50000000000E+03  0.47000000000E+01 0. -1.
</event>
<event>
 4    1  0.4903958E-004  0.1000000E+04  0.7546771E-02  0.8684367E-01
         11   -1    0    0    0    0  0.00000000000E+00  0.00000000000E+00  0.50000000000E+03  0.50000000000E+03  0.00000000000E+00 0. -1.
        -11   -1    0    0    0    0 -0.00000000000E+00 -0.00000000000E+00 -0.50000000000E+03  0.50000000000E+03  0.00000000000E+00 0.  1.
          5    1    1    2  501    0 -0.78950324078E+02  0.14697546851E+03  0.47132045148E+03  0.50000000000E+03  0.47000000000E+01 0. -1.
         -5    1    1    2    0  501  0.78950324078E+02 -0.14697546851E+03 -0.47132045148E+03  0.50000000000E+03  0.47000000000E+01 0.  1.
</event>
<event>
 4    1  0.4903958E-004  0.1000000E+04  0.7546771E-02  0.8684367E-01
         11   -1    0    0    0    0  0.00000000000E+00  0.00000000000E+00  0.50000000000E+03  0.50000000000E+03  0.00000000000E+00 0. -1.
        -11   -1    0    0    0    0 -0.00000000000E+00 -0.00000000000E+00 -0.50000000000E+03  0.50000000000E+03  0.00000000000E+00 0.  1.
          5    1    1    2  501    0  0.23800473418E+03  0.18401055391E+02  0.43930975139E+03  0.50000000000E+03  0.47000000000E+01 0. -1.
         -5    1    1    2    0  501 -0.23800473418E+03 -0.18401055391E+02 -0.43930975139E+03  0.50000000000E+03  0.47000000000E+01 0.  1.
</event>
<event>
 4    1  0.4903958E-004  0.1000000E+04  0.7546771E-02  0.8684367E-01
         11   -1    0    0    0    0  0.00000000000E+00  0.00000000000E+00  0.50000000000E+03  0.50000000000E+03  0.00000000000E+00 0. -1.
        -11   -1    0    0    0    0 -0.00000000000E+00 -0.00000000000E+00 -0.50000000000E+03  0.50000000000E+03  0.00000000000E+00 0.  1.
          5    1    1    2  501    0 -0.41949769559E+03 -0.13009686147E+03  0.23890249064E+03  0.50000000000E+03  0.47000000000E+01 0. -1.
         -5    1    1    2    0  501  0.41949769559E+03  0.13009686147E+03 -0.23890249064E+03  0.50000000000E+03  0.47000000000E+01 0.  1.
</event>
<event>
 4    1  0.4903958E-004  0.1000000E+04  0.7546771E-02  0.8684367E-01
         11   -1    0    0    0    0  0.00000000000E+00  0.00000000000E+00  0.50000000000E+03  0.50000000000E+03  0.00000000000E+00 0. -1.
        -11   -1    0    0    0    0 -0.00000000000E+00 -0.00000000000E+00 -0.50000000000E+03  0.50000000000E+03  0.00000000000E+00 0.  1.
          5    1    1    2  501    0  0.26141904297E+03 -0.12377664019E+03  0.40782022671E+03  0.50000000000E+03  0.47000000000E+01 0. -1.
         -5    1    1    2    0  501 -0.26141904297E+03  0.12377664019E+03 -0.40782022671E+03  0.50000000000E+03  0.47000000000E+01 0.  1.
</event>
<event>
 4    1  0.4903958E-004  0.1000000E+04  0.7546771E-02  0.8684367E-01
         11   -1    0    0    0    0  0.00000000000E+00  0.00000000000E+00  0.50000000000E+03  0.50000000000E+03  0.00000000000E+00 0. -1.
        -11   -1    0    0    0    0 -0.00000000000E+00 -0.00000000000E+00 -0.50000000000E+03  0.50000000000E+03  0.00000000000E+00 0.  1.
          5    1    1    2  501    0 -0.28609141326E+03 -0.10883129259E+03  0.39532943606E+03  0.50000000000E+03  0.47000000000E+01 0. -1.
         -5    1    1    2    0  501  0.28609141326E+03  0.10883129259E+03 -0.39532943606E+03  0.50000000000E+03  0.47000000000E+01 0.  1.
</event>
<event>
 4    1  0.4903958E-004  0.1000000E+04  0.7546771E-02  0.8684367E-01
         11   -1    0    0    0    0  0.00000000000E+00  0.00000000000E+00  0.50000000000E+03  0.50000000000E+03  0.00000000000E+00 0. -1.
        -11   -1    0    0    0    0 -0.00000000000E+00 -0.00000000000E+00 -0.50000000000E+03  0.50000000000E+03  0.00000000000E+00 0.  1.
          5    1    1    2  501    0 -0.35479964417E+03 -0.21038232194E+03  0.28254982058E+03  0.50000000000E+03  0.47000000000E+01 0. -1.
         -5    1    1    2    0  501  0.35479964417E+03  0.21038232194E+03 -0.28254982058E+03  0.50000000000E+03  0.47000000000E+01 0.  1.
</event>
<event>
 4    1  0.4903958E-004  0.1000000E+04  0.7546771E-02  0.8684367E-01
         11   -1    0    0    0    0  0.00000000000E+00  0.00000000000E+00  0.50000000000E+03  0.50000000000E+03  0.00000000000E+00 0. -1.
        -11   -1    0    0    0    0 -0.00000000000E+00 -0.00000000000E+00 -0.50000000000E+03  0.50000000000E+03  0.00000000000E+00 0.  1.
          5    1    1    2  501    0 -0.34342383331E+03  0.34517172417E+03  0.11355378262E+03  0.50000000000E+03  0.47000000000E+01 0. -1.
         -5    1    1    2    0  501  0.34342383331E+03 -0.34517172417E+03 -0.11355378262E+03  0.50000000000E+03  0.47000000000E+01 0.  1.
</event>
<event>
 4    1  0.4903958E-004  0.1000000E+04  0.7546771E-02  0.8684367E-01
         11   -1    0    0    0    0  0.00000000000E+00  0.00000000000E+00  0.50000000000E+03  0.50000000000E+03  0.00000000000E+00 0. -1.
        -11   -1    0    0    0    0 -0.00000000000E+00 -0.00000000000E+00 -0.50000000000E+03  0.50000000000E+03  0.00000000000E+00 0.  1.
          5    1    1    2  501    0  0.44224548445E+03 -0.19460465852E+03  0.12855297882E+03  0.50000000000E+03  0.47000000000E+01 0. -1.
         -5    1    1    2    0  501 -0.44224548445E+03  0.19460465852E+03 -0.12855297882E+03  0.50000000000E+03  0.47000000000E+01 0.  1.
</event>
<event>
 4    1  0.4903958E-004  0.1000000E+04  0.7546771E-02  0.8684367E-01
         11   -1    0    0    0    0  0.00000000000E+00  0.00000000000E+00  0.50000000000E+03  0.50000000000E+03  0.00000000000E+00 0.  1.
        -11   -1    0    0    0    0 -0.00000000000E+00 -0.00000000000E+00 -0.50000000000E+03  0.50000000000E+03  0.00000000000E+00 0. -1.
          5    1    1    2  501    0  0.34757592038E+03  0.23022520495E+03 -0.27598051485E+03  0.50000000000E+03  0.47000000000E+01 0. -1.
         -5    1    1    2    0  501 -0.34757592038E+03 -0.23022520495E+03  0.27598051485E+03  0.50000000000E+03  0.47000000000E+01 0.  1.
</event>
<event>
 4    1  0.4903958E-004  0.1000000E+04  0.7546771E-02  0.8684367E-01
         11   -1    0    0    0    0  0.00000000000E+00  0.00000000000E+00  0.50000000000E+03  0.50000000000E+03  0.00000000000E+00 0. -1.
        -11   -1    0    0    0    0 -0.00000000000E+00 -0.00000000000E+00 -0.50000000000E+03  0.50000000000E+03  0.00000000000E+00 0.  1.
          5    1    1    2  501    0 -0.45379742719E+03  0.45250600478E+02 -0.20493459502E+03  0.50000000000E+03  0.47000000000E+01 0.  1.
         -5    1    1    2    0  501  0.45379742719E+03 -0.45250600478E+02  0.20493459502E+03  0.50000000000E+03  0.47000000000E+01 0. -1.
</event>
<event>
 4    1  0.4903958E-004  0.1000000E+04  0.7546771E-02  0.8684367E-01
         11   -1    0    0    0    0  0.00000000000E+00  0.00000000000E+00  0.50000000000E+03  0.50000000000E+03  0.00000000000E+00 0. -1.
        -11   -1    0    0    0    0 -0.00000000000E+00 -0.00000000000E+00 -0.50000000000E+03  0.50000000000E+03  0.00000000000E+00 0.  1.
          5    1    1    2  501    0  0.65945687990E+02 -0.10284961912E+03  0.48482061846E+03  0.50000000000E+03  0.47000000000E+01 0. -1.
         -5    1    1    2    0  501 -0.65945687990E+02  0.10284961912E+03 -0.48482061846E+03  0.50000000000E+03  0.47000000000E+01 0.  1.
</event>
<event>
 4    1  0.4903958E-004  0.1000000E+04  0.7546771E-02  0.8684367E-01
         11   -1    0    0    0    0  0.00000000000E+00  0.00000000000E+00  0.50000000000E+03  0.50000000000E+03  0.00000000000E+00 0. -1.
        -11   -1    0    0    0    0 -0.00000000000E+00 -0.00000000000E+00 -0.50000000000E+03  0.50000000000E+03  0.00000000000E+00 0.  1.
          5    1    1    2  501    0  0.25602235830E+02 -0.13720008756E+03  0.48010266766E+03  0.50000000000E+03  0.47000000000E+01 0. -1.
         -5    1    1    2    0  501 -0.25602235830E+02  0.13720008756E+03 -0.48010266766E+03  0.50000000000E+03  0.47000000000E+01 0.  1.
</event>
<event>
 4    1  0.4903958E-004  0.1000000E+04  0.7546771E-02  0.8684367E-01
         11   -1    0    0    0    0  0.00000000000E+00  0.00000000000E+00  0.50000000000E+03  0.50000000000E+03  0.00000000000E+00 0. -1.
        -11   -1    0    0    0    0 -0.00000000000E+00 -0.00000000000E+00 -0.50000000000E+03  0.50000000000E+03  0.00000000000E+00 0.  1.
          5    1    1    2  501    0 -0.42409190364E+03  0.25909015263E+03 -0.54738104443E+02  0.50000000000E+03  0.47000000000E+01 0. -1.
         -5    1    1    2    0  501  0.42409190364E+03 -0.25909015263E+03  0.54738104443E+02  0.50000000000E+03  0.47000000000E+01 0.  1.
</event>
<event>
 4    1  0.4903958E-004  0.1000000E+04  0.7546771E-02  0.8684367E-01
         11   -1    0    0    0    0  0.00000000000E+00  0.00000000000E+00  0.50000000000E+03  0.50000000000E+03  0.00000000000E+00 0. -1.
        -11   -1    0    0    0    0 -0.00000000000E+00 -0.00000000000E+00 -0.50000000000E+03  0.50000000000E+03  0.00000000000E+00 0.  1.
          5    1    1    2  501    0 -0.10107640946E+03  0.14511457408E+03 -0.46765717127E+03  0.50000000000E+03  0.47000000000E+01 0.  1.
         -5    1    1    2    0  501  0.10107640946E+03 -0.14511457408E+03  0.46765717127E+03  0.50000000000E+03  0.47000000000E+01 0. -1.
</event>
<event>
 4    1  0.4903958E-004  0.1000000E+04  0.7546771E-02  0.8684367E-01
         11   -1    0    0    0    0  0.00000000000E+00  0.00000000000E+00  0.50000000000E+03  0.50000000000E+03  0.00000000000E+00 0. -1.
        -11   -1    0    0    0    0 -0.00000000000E+00 -0.00000000000E+00 -0.50000000000E+03  0.50000000000E+03  0.00000000000E+00 0.  1.
          5    1    1    2  501    0 -0.29938380808E+03 -0.37611058273E+03 -0.13743389325E+03  0.50000000000E+03  0.47000000000E+01 0. -1.
         -5    1    1    2    0  501  0.29938380808E+03  0.37611058273E+03  0.13743389325E+03  0.50000000000E+03  0.47000000000E+01 0.  1.
</event>
<event>
 4    1  0.4903958E-004  0.1000000E+04  0.7546771E-02  0.8684367E-01
         11   -1    0    0    0    0  0.00000000000E+00  0.00000000000E+00  0.50000000000E+03  0.50000000000E+03  0.00000000000E+00 0. -1.
        -11   -1    0    0    0    0 -0.00000000000E+00 -0.00000000000E+00 -0.50000000000E+03  0.50000000000E+03  0.00000000000E+00 0.  1.
          5    1    1    2  501    0  0.49179028291E+03 -0.58020093604E+01 -0.89925326359E+02  0.50000000000E+03  0.47000000000E+01 0. -1.
         -5    1    1    2    0  501 -0.49179028291E+03  0.58020093604E+01  0.89925326359E+02  0.50000000000E+03  0.47000000000E+01 0.  1.
</event>
<event>
 4    1  0.4903958E-004  0.1000000E+04  0.7546771E-02  0.8684367E-01
         11   -1    0    0    0    0  0.00000000000E+00  0.00000000000E+00  0.50000000000E+03  0.50000000000E+03  0.00000000000E+00 0. -1.
        -11   -1    0    0    0    0 -0.00000000000E+00 -0.00000000000E+00 -0.50000000000E+03  0.50000000000E+03  0.00000000000E+00 0.  1.
          5    1    1    2  501    0  0.45905484032E+02  0.10915102708E+03  0.48575369255E+03  0.50000000000E+03  0.47000000000E+01 0. -1.
         -5    1    1    2    0  501 -0.45905484032E+02 -0.10915102708E+03 -0.48575369255E+03  0.50000000000E+03  0.47000000000E+01 0.  1.
</event>
<event>
 4    1  0.4903958E-004  0.1000000E+04  0.7546771E-02  0.8684367E-01
         11   -1    0    0    0    0  0.00000000000E+00  0.00000000000E+00  0.50000000000E+03  0.50000000000E+03  0.00000000000E+00 0.  1.
        -11   -1    0    0    0    0 -0.00000000000E+00 -0.00000000000E+00 -0.50000000000E+03  0.50000000000E+03  0.00000000000E+00 0. -1.
          5    1    1    2  501    0 -0.20276747989E+03 -0.43178449723E+03 -0.14975115040E+03  0.50000000000E+03  0.47000000000E+01 0.  1.
         -5    1    1    2    0  501  0.20276747989E+03  0.43178449723E+03  0.14975115040E+03  0.50000000000E+03  0.47000000000E+01 0. -1.
</event>
<event>
 4    1  0.4903958E-004  0.1000000E+04  0.7546771E-02  0.8684367E-01
         11   -1    0    0    0    0  0.00000000000E+00  0.00000000000E+00  0.50000000000E+03  0.50000000000E+03  0.00000000000E+00 0. -1.
        -11   -1    0    0    0    0 -0.00000000000E+00 -0.00000000000E+00 -0.50000000000E+03  0.50000000000E+03  0.00000000000E+00 0.  1.
          5    1    1    2  501    0  0.21842482919E+03 -0.96586840265E+02  0.43924877493E+03  0.50000000000E+03  0.47000000000E+01 0. -1.
         -5    1    1    2    0  501 -0.21842482919E+03  0.96586840265E+02 -0.43924877493E+03  0.50000000000E+03  0.47000000000E+01 0.  1.
</event>
<event>
 4    1  0.4903958E-004  0.1000000E+04  0.7546771E-02  0.8684367E-01
         11   -1    0    0    0    0  0.00000000000E+00  0.00000000000E+00  0.50000000000E+03  0.50000000000E+03  0.00000000000E+00 0. -1.
        -11   -1    0    0    0    0 -0.00000000000E+00 -0.00000000000E+00 -0.50000000000E+03  0.50000000000E+03  0.00000000000E+00 0.  1.
          5    1    1    2  501    0  0.29627796113E+03  0.16651477451E+03 -0.36670166296E+03  0.50000000000E+03  0.47000000000E+01 0.  1.
         -5    1    1    2    0  501 -0.29627796113E+03 -0.16651477451E+03  0.36670166296E+03  0.50000000000E+03  0.47000000000E+01 0. -1.
</event>
<event>
 4    1  0.4903958E-004  0.1000000E+04  0.7546771E-02  0.8684367E-01
         11   -1    0    0    0    0  0.00000000000E+00  0.00000000000E+00  0.50000000000E+03  0.50000000000E+03  0.00000000000E+00 0. -1.
        -11   -1    0    0    0    0 -0.00000000000E+00 -0.00000000000E+00 -0.50000000000E+03  0.50000000000E+03  0.00000000000E+00 0.  1.
          5    1    1    2  501    0  0.25482359952E+03 -0.14513155246E+03  0.40494404010E+03  0.50000000000E+03  0.47000000000E+01 0. -1.
         -5    1    1    2    0  501 -0.25482359952E+03  0.14513155246E+03 -0.40494404010E+03  0.50000000000E+03  0.47000000000E+01 0.  1.
</event>
<event>
 4    1  0.4903958E-004  0.1000000E+04  0.7546771E-02  0.8684367E-01
         11   -1    0    0    0    0  0.00000000000E+00  0.00000000000E+00  0.50000000000E+03  0.50000000000E+03  0.00000000000E+00 0. -1.
        -11   -1    0    0    0    0 -0.00000000000E+00 -0.00000000000E+00 -0.50000000000E+03  0.50000000000E+03  0.00000000000E+00 0.  1.
          5    1    1    2  501    0  0.86244462220E+02 -0.45809633726E+02  0.49034812143E+03  0.50000000000E+03  0.47000000000E+01 0. -1.
         -5    1    1    2    0  501 -0.86244462220E+02  0.45809633726E+02 -0.49034812143E+03  0.50000000000E+03  0.47000000000E+01 0.  1.
</event>
<event>
 4    1  0.4903958E-004  0.1000000E+04  0.7546771E-02  0.8684367E-01
         11   -1    0    0    0    0  0.00000000000E+00  0.00000000000E+00  0.50000000000E+03  0.50000000000E+03  0.00000000000E+00 0. -1.
        -11   -1    0    0    0    0 -0.00000000000E+00 -0.00000000000E+00 -0.50000000000E+03  0.50000000000E+03  0.00000000000E+00 0.  1.
          5    1    1    2  501    0 -0.30725280629E+03 -0.27502956483E+03 -0.28272311808E+03  0.50000000000E+03  0.47000000000E+01 0. -1.
         -5    1    1    2    0  501  0.30725280629E+03  0.27502956483E+03  0.28272311808E+03  0.50000000000E+03  0.47000000000E+01 0.  1.
</event>
<event>
 4    1  0.4903958E-004  0.1000000E+04  0.7546771E-02  0.8684367E-01
         11   -1    0    0    0    0  0.00000000000E+00  0.00000000000E+00  0.50000000000E+03  0.50000000000E+03  0.00000000000E+00 0. -1.
        -11   -1    0    0    0    0 -0.00000000000E+00 -0.00000000000E+00 -0.50000000000E+03  0.50000000000E+03  0.00000000000E+00 0.  1.
          5    1    1    2  501    0  0.49813248898E+03 -0.37822075538E+02  0.20283590054E+02  0.50000000000E+03  0.47000000000E+01 0. -1.
         -5    1    1    2    0  501 -0.49813248898E+03  0.37822075538E+02 -0.20283590054E+02  0.50000000000E+03  0.47000000000E+01 0.  1.
</event>
<event>
 4    1  0.4903958E-004  0.1000000E+04  0.7546771E-02  0.8684367E-01
         11   -1    0    0    0    0  0.00000000000E+00  0.00000000000E+00  0.50000000000E+03  0.50000000000E+03  0.00000000000E+00 0. -1.
        -11   -1    0    0    0    0 -0.00000000000E+00 -0.00000000000E+00 -0.50000000000E+03  0.50000000000E+03  0.00000000000E+00 0.  1.
          5    1    1    2  501    0 -0.15948169493E+03  0.44410291294E+03  0.16527583519E+03  0.50000000000E+03  0.47000000000E+01 0. -1.
         -5    1    1    2    0  501  0.15948169493E+03 -0.44410291294E+03 -0.16527583519E+03  0.50000000000E+03  0.47000000000E+01 0.  1.
</event>
<event>
 4    1  0.4903958E-004  0.1000000E+04  0.7546771E-02  0.8684367E-01
         11   -1    0    0    0    0  0.00000000000E+00  0.00000000000E+00  0.50000000000E+03  0.50000000000E+03  0.00000000000E+00 0. -1.
        -11   -1    0    0    0    0 -0.00000000000E+00 -0.00000000000E+00 -0.50000000000E+03  0.50000000000E+03  0.00000000000E+00 0.  1.
          5    1    1    2  501    0 -0.36814353531E+03  0.21479783637E+03  0.26136208006E+03  0.50000000000E+03  0.47000000000E+01 0. -1.
         -5    1    1    2    0  501  0.36814353531E+03 -0.21479783637E+03 -0.26136208006E+03  0.50000000000E+03  0.47000000000E+01 0.  1.
</event>
<event>
 4    1  0.4903958E-004  0.1000000E+04  0.7546771E-02  0.8684367E-01
         11   -1    0    0    0    0  0.00000000000E+00  0.00000000000E+00  0.50000000000E+03  0.50000000000E+03  0.00000000000E+00 0. -1.
        -11   -1    0    0    0    0 -0.00000000000E+00 -0.00000000000E+00 -0.50000000000E+03  0.50000000000E+03  0.00000000000E+00 0.  1.
          5    1    1    2  501    0 -0.13211203128E+03 -0.37358603909E+03  0.30488980401E+03  0.50000000000E+03  0.47000000000E+01 0. -1.
         -5    1    1    2    0  501  0.13211203128E+03  0.37358603909E+03 -0.30488980401E+03  0.50000000000E+03  0.47000000000E+01 0.  1.
</event>
<event>
 4    1  0.4903958E-004  0.1000000E+04  0.7546771E-02  0.8684367E-01
         11   -1    0    0    0    0  0.00000000000E+00  0.00000000000E+00  0.50000000000E+03  0.50000000000E+03  0.00000000000E+00 0. -1.
        -11   -1    0    0    0    0 -0.00000000000E+00 -0.00000000000E+00 -0.50000000000E+03  0.50000000000E+03  0.00000000000E+00 0.  1.
          5    1    1    2  501    0 -0.27170975391E+03  0.50563241450E+02  0.41664742678E+03  0.50000000000E+03  0.47000000000E+01 0. -1.
         -5    1    1    2    0  501  0.27170975391E+03 -0.50563241450E+02 -0.41664742678E+03  0.50000000000E+03  0.47000000000E+01 0.  1.
</event>
<event>
 4    1  0.4903958E-004  0.1000000E+04  0.7546771E-02  0.8684367E-01
         11   -1    0    0    0    0  0.00000000000E+00  0.00000000000E+00  0.50000000000E+03  0.50000000000E+03  0.00000000000E+00 0.  1.
        -11   -1    0    0    0    0 -0.00000000000E+00 -0.00000000000E+00 -0.50000000000E+03  0.50000000000E+03  0.00000000000E+00 0. -1.
          5    1    1    2  501    0 -0.33554805197E+03 -0.16047714788E+03  0.33411450108E+03  0.50000000000E+03  0.47000000000E+01 0.  1.
         -5    1    1    2    0  501  0.33554805197E+03  0.16047714788E+03 -0.33411450108E+03  0.50000000000E+03  0.47000000000E+01 0. -1.
</event>
<event>
 4    1  0.4903958E-004  0.1000000E+04  0.7546771E-02  0.8684367E-01
         11   -1    0    0    0    0  0.00000000000E+00  0.00000000000E+00  0.50000000000E+03  0.50000000000E+03  0.00000000000E+00 0. -1.
        -11   -1    0    0    0    0 -0.00000000000E+00 -0.00000000000E+00 -0.50000000000E+03  0.50000000000E+03  0.00000000000E+00 0.  1.
          5    1    1    2  501    0  0.10986839887E+02  0.13046268062E+03  0.48253154126E+03  0.50000000000E+03  0.47000000000E+01 0. -1.
         -5    1    1    2    0  501 -0.10986839887E+02 -0.13046268062E+03 -0.48253154126E+03  0.50000000000E+03  0.47000000000E+01 0.  1.
</event>
<event>
 4    1  0.4903958E-004  0.1000000E+04  0.7546771E-02  0.8684367E-01
         11   -1    0    0    0    0  0.00000000000E+00  0.00000000000E+00  0.50000000000E+03  0.50000000000E+03  0.00000000000E+00 0. -1.
        -11   -1    0    0    0    0 -0.00000000000E+00 -0.00000000000E+00 -0.50000000000E+03  0.50000000000E+03  0.00000000000E+00 0.  1.
          5    1    1    2  501    0 -0.13755333770E+03 -0.25076816555E+03  0.41008818129E+03  0.50000000000E+03  0.47000000000E+01 0. -1.
         -5    1    1    2    0  501  0.13755333770E+03  0.25076816555E+03 -0.41008818129E+03  0.50000000000E+03  0.47000000000E+01 0.  1.
</event>
<event>
 4    1  0.4903958E-004  0.1000000E+04  0.7546771E-02  0.8684367E-01
         11   -1    0    0    0    0  0.00000000000E+00  0.00000000000E+00  0.50000000000E+03  0.50000000000E+03  0.00000000000E+00 0. -1.
        -11   -1    0    0    0    0 -0.00000000000E+00 -0.00000000000E+00 -0.50000000000E+03  0.50000000000E+03  0.00000000000E+00 0.  1.
          5    1    1    2  501    0 -0.38229406906E+03  0.28472092254E+03 -0.15087462023E+03  0.50000000000E+03  0.47000000000E+01 0. -1.
         -5    1    1    2    0  501  0.38229406906E+03 -0.28472092254E+03  0.15087462023E+03  0.50000000000E+03  0.47000000000E+01 0.  1.
</event>
<event>
 4    1  0.4903958E-004  0.1000000E+04  0.7546771E-02  0.8684367E-01
         11   -1    0    0    0    0  0.00000000000E+00  0.00000000000E+00  0.50000000000E+03  0.50000000000E+03  0.00000000000E+00 0. -1.
        -11   -1    0    0    0    0 -0.00000000000E+00 -0.00000000000E+00 -0.50000000000E+03  0.50000000000E+03  0.00000000000E+00 0.  1.
          5    1    1    2  501    0 -0.21050139331E+03 -0.27750697930E+03  0.35868781671E+03  0.50000000000E+03  0.47000000000E+01 0. -1.
         -5    1    1    2    0  501  0.21050139331E+03  0.27750697930E+03 -0.35868781671E+03  0.50000000000E+03  0.47000000000E+01 0.  1.
</event>
<event>
 4    1  0.4903958E-004  0.1000000E+04  0.7546771E-02  0.8684367E-01
         11   -1    0    0    0    0  0.00000000000E+00  0.00000000000E+00  0.50000000000E+03  0.50000000000E+03  0.00000000000E+00 0. -1.
        -11   -1    0    0    0    0 -0.00000000000E+00 -0.00000000000E+00 -0.50000000000E+03  0.50000000000E+03  0.00000000000E+00 0.  1.
          5    1    1    2  501    0 -0.33213523460E+03 -0.35681805752E+03 -0.11110791948E+03  0.50000000000E+03  0.47000000000E+01 0. -1.
         -5    1    1    2    0  501  0.33213523460E+03  0.35681805752E+03  0.11110791948E+03  0.50000000000E+03  0.47000000000E+01 0.  1.
</event>
<event>
 4    1  0.4903958E-004  0.1000000E+04  0.7546771E-02  0.8684367E-01
         11   -1    0    0    0    0  0.00000000000E+00  0.00000000000E+00  0.50000000000E+03  0.50000000000E+03  0.00000000000E+00 0. -1.
        -11   -1    0    0    0    0 -0.00000000000E+00 -0.00000000000E+00 -0.50000000000E+03  0.50000000000E+03  0.00000000000E+00 0.  1.
          5    1    1    2  501    0  0.29777160507E+03 -0.32518929340E+03  0.23571572853E+03  0.50000000000E+03  0.47000000000E+01 0. -1.
         -5    1    1    2    0  501 -0.29777160507E+03  0.32518929340E+03 -0.23571572853E+03  0.50000000000E+03  0.47000000000E+01 0.  1.
</event>
<event>
 4    1  0.4903958E-004  0.1000000E+04  0.7546771E-02  0.8684367E-01
         11   -1    0    0    0    0  0.00000000000E+00  0.00000000000E+00  0.50000000000E+03  0.50000000000E+03  0.00000000000E+00 0. -1.
        -11   -1    0    0    0    0 -0.00000000000E+00 -0.00000000000E+00 -0.50000000000E+03  0.50000000000E+03  0.00000000000E+00 0.  1.
          5    1    1    2  501    0  0.23495969537E+03  0.31015337499E+03  0.31396932260E+03  0.50000000000E+03  0.47000000000E+01 0. -1.
         -5    1    1    2    0  501 -0.23495969537E+03 -0.31015337499E+03 -0.31396932260E+03  0.50000000000E+03  0.47000000000E+01 0.  1.
</event>
<event>
 4    1  0.4903958E-004  0.1000000E+04  0.7546771E-02  0.8684367E-01
         11   -1    0    0    0    0  0.00000000000E+00  0.00000000000E+00  0.50000000000E+03  0.50000000000E+03  0.00000000000E+00 0. -1.
        -11   -1    0    0    0    0 -0.00000000000E+00 -0.00000000000E+00 -0.50000000000E+03  0.50000000000E+03  0.00000000000E+00 0.  1.
          5    1    1    2  501    0 -0.21061466892E+03 -0.37076320008E+03  0.26106325039E+03  0.50000000000E+03  0.47000000000E+01 0. -1.
         -5    1    1    2    0  501  0.21061466892E+03  0.37076320008E+03 -0.26106325039E+03  0.50000000000E+03  0.47000000000E+01 0.  1.
</event>
<event>
 4    1  0.4903958E-004  0.1000000E+04  0.7546771E-02  0.8684367E-01
         11   -1    0    0    0    0  0.00000000000E+00  0.00000000000E+00  0.50000000000E+03  0.50000000000E+03  0.00000000000E+00 0. -1.
        -11   -1    0    0    0    0 -0.00000000000E+00 -0.00000000000E+00 -0.50000000000E+03  0.50000000000E+03  0.00000000000E+00 0.  1.
          5    1    1    2  501    0 -0.26177116305E+03  0.39549400752E+02  0.42413395655E+03  0.50000000000E+03  0.47000000000E+01 0. -1.
         -5    1    1    2    0  501  0.26177116305E+03 -0.39549400752E+02 -0.42413395655E+03  0.50000000000E+03  0.47000000000E+01 0.  1.
</event>
<event>
 4    1  0.4903958E-004  0.1000000E+04  0.7546771E-02  0.8684367E-01
         11   -1    0    0    0    0  0.00000000000E+00  0.00000000000E+00  0.50000000000E+03  0.50000000000E+03  0.00000000000E+00 0. -1.
        -11   -1    0    0    0    0 -0.00000000000E+00 -0.00000000000E+00 -0.50000000000E+03  0.50000000000E+03  0.00000000000E+00 0.  1.
          5    1    1    2  501    0 -0.12147232835E+03 -0.97539298954E+01  0.48489921045E+03  0.50000000000E+03  0.47000000000E+01 0. -1.
         -5    1    1    2    0  501  0.12147232835E+03  0.97539298954E+01 -0.48489921045E+03  0.50000000000E+03  0.47000000000E+01 0.  1.
</event>
<event>
 4    1  0.4903958E-004  0.1000000E+04  0.7546771E-02  0.8684367E-01
         11   -1    0    0    0    0  0.00000000000E+00  0.00000000000E+00  0.50000000000E+03  0.50000000000E+03  0.00000000000E+00 0. -1.
        -11   -1    0    0    0    0 -0.00000000000E+00 -0.00000000000E+00 -0.50000000000E+03  0.50000000000E+03  0.00000000000E+00 0.  1.
          5    1    1    2  501    0  0.17430556728E+03  0.10034038300E+03  0.45774150648E+03  0.50000000000E+03  0.47000000000E+01 0. -1.
         -5    1    1    2    0  501 -0.17430556728E+03 -0.10034038300E+03 -0.45774150648E+03  0.50000000000E+03  0.47000000000E+01 0.  1.
</event>
<event>
 4    1  0.4903958E-004  0.1000000E+04  0.7546771E-02  0.8684367E-01
         11   -1    0    0    0    0  0.00000000000E+00  0.00000000000E+00  0.50000000000E+03  0.50000000000E+03  0.00000000000E+00 0. -1.
        -11   -1    0    0    0    0 -0.00000000000E+00 -0.00000000000E+00 -0.50000000000E+03  0.50000000000E+03  0.00000000000E+00 0.  1.
          5    1    1    2  501    0  0.23563291173E+02 -0.38623843458E+03 -0.31661104365E+03  0.50000000000E+03  0.47000000000E+01 0.  1.
         -5    1    1    2    0  501 -0.23563291173E+02  0.38623843458E+03  0.31661104365E+03  0.50000000000E+03  0.47000000000E+01 0. -1.
</event>
<event>
 4    1  0.4903958E-004  0.1000000E+04  0.7546771E-02  0.8684367E-01
         11   -1    0    0    0    0  0.00000000000E+00  0.00000000000E+00  0.50000000000E+03  0.50000000000E+03  0.00000000000E+00 0. -1.
        -11   -1    0    0    0    0 -0.00000000000E+00 -0.00000000000E+00 -0.50000000000E+03  0.50000000000E+03  0.00000000000E+00 0.  1.
          5    1    1    2  501    0 -0.18939509250E+03 -0.46265805312E+03  0.74118027820E+01  0.50000000000E+03  0.47000000000E+01 0. -1.
         -5    1    1    2    0  501  0.18939509250E+03  0.46265805312E+03 -0.74118027820E+01  0.50000000000E+03  0.47000000000E+01 0.  1.
</event>
<event>
 4    1  0.4903958E-004  0.1000000E+04  0.7546771E-02  0.8684367E-01
         11   -1    0    0    0    0  0.00000000000E+00  0.00000000000E+00  0.50000000000E+03  0.50000000000E+03  0.00000000000E+00 0. -1.
        -11   -1    0    0    0    0 -0.00000000000E+00 -0.00000000000E+00 -0.50000000000E+03  0.50000000000E+03  0.00000000000E+00 0.  1.
          5    1    1    2  501    0 -0.26035252141E+03  0.50166436170E+02  0.42388418616E+03  0.50000000000E+03  0.47000000000E+01 0. -1.
         -5    1    1    2    0  501  0.26035252141E+03 -0.50166436170E+02 -0.42388418616E+03  0.50000000000E+03  0.47000000000E+01 0.  1.
</event>
<event>
 4    1  0.4903958E-004  0.1000000E+04  0.7546771E-02  0.8684367E-01
         11   -1    0    0    0    0  0.00000000000E+00  0.00000000000E+00  0.50000000000E+03  0.50000000000E+03  0.00000000000E+00 0. -1.
        -11   -1    0    0    0    0 -0.00000000000E+00 -0.00000000000E+00 -0.50000000000E+03  0.50000000000E+03  0.00000000000E+00 0.  1.
          5    1    1    2  501    0 -0.44380009460E+03  0.12737132449E+03  0.19182265697E+03  0.50000000000E+03  0.47000000000E+01 0. -1.
         -5    1    1    2    0  501  0.44380009460E+03 -0.12737132449E+03 -0.19182265697E+03  0.50000000000E+03  0.47000000000E+01 0.  1.
</event>
<event>
 4    1  0.4903958E-004  0.1000000E+04  0.7546771E-02  0.8684367E-01
         11   -1    0    0    0    0  0.00000000000E+00  0.00000000000E+00  0.50000000000E+03  0.50000000000E+03  0.00000000000E+00 0. -1.
        -11   -1    0    0    0    0 -0.00000000000E+00 -0.00000000000E+00 -0.50000000000E+03  0.50000000000E+03  0.00000000000E+00 0.  1.
          5    1    1    2  501    0  0.29405726713E+03 -0.84969423111E+02  0.39533331605E+03  0.50000000000E+03  0.47000000000E+01 0. -1.
         -5    1    1    2    0  501 -0.29405726713E+03  0.84969423111E+02 -0.39533331605E+03  0.50000000000E+03  0.47000000000E+01 0.  1.
</event>
<event>
 4    1  0.4903958E-004  0.1000000E+04  0.7546771E-02  0.8684367E-01
         11   -1    0    0    0    0  0.00000000000E+00  0.00000000000E+00  0.50000000000E+03  0.50000000000E+03  0.00000000000E+00 0. -1.
        -11   -1    0    0    0    0 -0.00000000000E+00 -0.00000000000E+00 -0.50000000000E+03  0.50000000000E+03  0.00000000000E+00 0.  1.
          5    1    1    2  501    0  0.14124505579E+03  0.42947198133E+03  0.21349838750E+03  0.50000000000E+03  0.47000000000E+01 0. -1.
         -5    1    1    2    0  501 -0.14124505579E+03 -0.42947198133E+03 -0.21349838750E+03  0.50000000000E+03  0.47000000000E+01 0.  1.
</event>
<event>
 4    1  0.4903958E-004  0.1000000E+04  0.7546771E-02  0.8684367E-01
         11   -1    0    0    0    0  0.00000000000E+00  0.00000000000E+00  0.50000000000E+03  0.50000000000E+03  0.00000000000E+00 0. -1.
        -11   -1    0    0    0    0 -0.00000000000E+00 -0.00000000000E+00 -0.50000000000E+03  0.50000000000E+03  0.00000000000E+00 0.  1.
          5    1    1    2  501    0 -0.23472522277E+03  0.17650907750E+03  0.40463134500E+03  0.50000000000E+03  0.47000000000E+01 0. -1.
         -5    1    1    2    0  501  0.23472522277E+03 -0.17650907750E+03 -0.40463134500E+03  0.50000000000E+03  0.47000000000E+01 0.  1.
</event>
<event>
 4    1  0.4903958E-004  0.1000000E+04  0.7546771E-02  0.8684367E-01
         11   -1    0    0    0    0  0.00000000000E+00  0.00000000000E+00  0.50000000000E+03  0.50000000000E+03  0.00000000000E+00 0. -1.
        -11   -1    0    0    0    0 -0.00000000000E+00 -0.00000000000E+00 -0.50000000000E+03  0.50000000000E+03  0.00000000000E+00 0.  1.
          5    1    1    2  501    0 -0.12624277523E+03 -0.14678148258E+02  0.48355477835E+03  0.50000000000E+03  0.47000000000E+01 0. -1.
         -5    1    1    2    0  501  0.12624277523E+03  0.14678148258E+02 -0.48355477835E+03  0.50000000000E+03  0.47000000000E+01 0.  1.
</event>
<event>
 4    1  0.4903958E-004  0.1000000E+04  0.7546771E-02  0.8684367E-01
         11   -1    0    0    0    0  0.00000000000E+00  0.00000000000E+00  0.50000000000E+03  0.50000000000E+03  0.00000000000E+00 0. -1.
        -11   -1    0    0    0    0 -0.00000000000E+00 -0.00000000000E+00 -0.50000000000E+03  0.50000000000E+03  0.00000000000E+00 0.  1.
          5    1    1    2  501    0  0.46814756223E+03 -0.17545916465E+03  0.54636541838E+01  0.50000000000E+03  0.47000000000E+01 0. -1.
         -5    1    1    2    0  501 -0.46814756223E+03  0.17545916465E+03 -0.54636541838E+01  0.50000000000E+03  0.47000000000E+01 0.  1.
</event>
<event>
 4    1  0.4903958E-004  0.1000000E+04  0.7546771E-02  0.8684367E-01
         11   -1    0    0    0    0  0.00000000000E+00  0.00000000000E+00  0.50000000000E+03  0.50000000000E+03  0.00000000000E+00 0.  1.
        -11   -1    0    0    0    0 -0.00000000000E+00 -0.00000000000E+00 -0.50000000000E+03  0.50000000000E+03  0.00000000000E+00 0. -1.
          5    1    1    2  501    0 -0.27064024053E+03  0.36588015941E+03  0.20703497084E+03  0.50000000000E+03  0.47000000000E+01 0.  1.
         -5    1    1    2    0  501  0.27064024053E+03 -0.36588015941E+03 -0.20703497084E+03  0.50000000000E+03  0.47000000000E+01 0. -1.
</event>
<event>
 4    1  0.4903958E-004  0.1000000E+04  0.7546771E-02  0.8684367E-01
         11   -1    0    0    0    0  0.00000000000E+00  0.00000000000E+00  0.50000000000E+03  0.50000000000E+03  0.00000000000E+00 0. -1.
        -11   -1    0    0    0    0 -0.00000000000E+00 -0.00000000000E+00 -0.50000000000E+03  0.50000000000E+03  0.00000000000E+00 0.  1.
          5    1    1    2  501    0 -0.12658232836E+03 -0.19005781178E+03  0.44478405134E+03  0.50000000000E+03  0.47000000000E+01 0. -1.
         -5    1    1    2    0  501  0.12658232836E+03  0.19005781178E+03 -0.44478405134E+03  0.50000000000E+03  0.47000000000E+01 0.  1.
</event>
<event>
 4    1  0.4903958E-004  0.1000000E+04  0.7546771E-02  0.8684367E-01
         11   -1    0    0    0    0  0.00000000000E+00  0.00000000000E+00  0.50000000000E+03  0.50000000000E+03  0.00000000000E+00 0. -1.
        -11   -1    0    0    0    0 -0.00000000000E+00 -0.00000000000E+00 -0.50000000000E+03  0.50000000000E+03  0.00000000000E+00 0.  1.
          5    1    1    2  501    0 -0.39716852892E+03 -0.23829673469E+02 -0.30276594309E+03  0.50000000000E+03  0.47000000000E+01 0. -1.
         -5    1    1    2    0  501  0.39716852892E+03  0.23829673469E+02  0.30276594309E+03  0.50000000000E+03  0.47000000000E+01 0.  1.
</event>
<event>
 4    1  0.4903958E-004  0.1000000E+04  0.7546771E-02  0.8684367E-01
         11   -1    0    0    0    0  0.00000000000E+00  0.00000000000E+00  0.50000000000E+03  0.50000000000E+03  0.00000000000E+00 0. -1.
        -11   -1    0    0    0    0 -0.00000000000E+00 -0.00000000000E+00 -0.50000000000E+03  0.50000000000E+03  0.00000000000E+00 0.  1.
          5    1    1    2  501    0 -0.28760120495E+03 -0.41576813816E+02  0.40685971226E+03  0.50000000000E+03  0.47000000000E+01 0. -1.
         -5    1    1    2    0  501  0.28760120495E+03  0.41576813816E+02 -0.40685971226E+03  0.50000000000E+03  0.47000000000E+01 0.  1.
</event>
<event>
 4    1  0.4903958E-004  0.1000000E+04  0.7546771E-02  0.8684367E-01
         11   -1    0    0    0    0  0.00000000000E+00  0.00000000000E+00  0.50000000000E+03  0.50000000000E+03  0.00000000000E+00 0. -1.
        -11   -1    0    0    0    0 -0.00000000000E+00 -0.00000000000E+00 -0.50000000000E+03  0.50000000000E+03  0.00000000000E+00 0.  1.
          5    1    1    2  501    0  0.49723284012E+03  0.93005480445E+01  0.51487013050E+02  0.50000000000E+03  0.47000000000E+01 0. -1.
         -5    1    1    2    0  501 -0.49723284012E+03 -0.93005480445E+01 -0.51487013050E+02  0.50000000000E+03  0.47000000000E+01 0.  1.
</event>
<event>
 4    1  0.4903958E-004  0.1000000E+04  0.7546771E-02  0.8684367E-01
         11   -1    0    0    0    0  0.00000000000E+00  0.00000000000E+00  0.50000000000E+03  0.50000000000E+03  0.00000000000E+00 0. -1.
        -11   -1    0    0    0    0 -0.00000000000E+00 -0.00000000000E+00 -0.50000000000E+03  0.50000000000E+03  0.00000000000E+00 0.  1.
          5    1    1    2  501    0 -0.22423364415E+03  0.38025053151E+03  0.23474819727E+03  0.50000000000E+03  0.47000000000E+01 0. -1.
         -5    1    1    2    0  501  0.22423364415E+03 -0.38025053151E+03 -0.23474819727E+03  0.50000000000E+03  0.47000000000E+01 0.  1.
</event>
<event>
 4    1  0.4903958E-004  0.1000000E+04  0.7546771E-02  0.8684367E-01
         11   -1    0    0    0    0  0.00000000000E+00  0.00000000000E+00  0.50000000000E+03  0.50000000000E+03  0.00000000000E+00 0. -1.
        -11   -1    0    0    0    0 -0.00000000000E+00 -0.00000000000E+00 -0.50000000000E+03  0.50000000000E+03  0.00000000000E+00 0.  1.
          5    1    1    2  501    0 -0.11706449179E+03 -0.23879977418E+03  0.42337747060E+03  0.50000000000E+03  0.47000000000E+01 0. -1.
         -5    1    1    2    0  501  0.11706449179E+03  0.23879977418E+03 -0.42337747060E+03  0.50000000000E+03  0.47000000000E+01 0.  1.
</event>
<event>
 4    1  0.4903958E-004  0.1000000E+04  0.7546771E-02  0.8684367E-01
         11   -1    0    0    0    0  0.00000000000E+00  0.00000000000E+00  0.50000000000E+03  0.50000000000E+03  0.00000000000E+00 0. -1.
        -11   -1    0    0    0    0 -0.00000000000E+00 -0.00000000000E+00 -0.50000000000E+03  0.50000000000E+03  0.00000000000E+00 0.  1.
          5    1    1    2  501    0 -0.13141348661E+03  0.46771996046E+03  0.11809506392E+03  0.50000000000E+03  0.47000000000E+01 0. -1.
         -5    1    1    2    0  501  0.13141348661E+03 -0.46771996046E+03 -0.11809506392E+03  0.50000000000E+03  0.47000000000E+01 0.  1.
</event>
<event>
 4    1  0.4903958E-004  0.1000000E+04  0.7546771E-02  0.8684367E-01
         11   -1    0    0    0    0  0.00000000000E+00  0.00000000000E+00  0.50000000000E+03  0.50000000000E+03  0.00000000000E+00 0. -1.
        -11   -1    0    0    0    0 -0.00000000000E+00 -0.00000000000E+00 -0.50000000000E+03  0.50000000000E+03  0.00000000000E+00 0.  1.
          5    1    1    2  501    0 -0.74174237097E+02 -0.42452179510E+03  0.25349031152E+03  0.50000000000E+03  0.47000000000E+01 0. -1.
         -5    1    1    2    0  501  0.74174237097E+02  0.42452179510E+03 -0.25349031152E+03  0.50000000000E+03  0.47000000000E+01 0.  1.
</event>
<event>
 4    1  0.4903958E-004  0.1000000E+04  0.7546771E-02  0.8684367E-01
         11   -1    0    0    0    0  0.00000000000E+00  0.00000000000E+00  0.50000000000E+03  0.50000000000E+03  0.00000000000E+00 0.  1.
        -11   -1    0    0    0    0 -0.00000000000E+00 -0.00000000000E+00 -0.50000000000E+03  0.50000000000E+03  0.00000000000E+00 0. -1.
          5    1    1    2  501    0 -0.15882618344E+02  0.47164220907E+03  0.16516440010E+03  0.50000000000E+03  0.47000000000E+01 0.  1.
         -5    1    1    2    0  501  0.15882618344E+02 -0.47164220907E+03 -0.16516440010E+03  0.50000000000E+03  0.47000000000E+01 0. -1.
</event>
<event>
 4    1  0.4903958E-004  0.1000000E+04  0.7546771E-02  0.8684367E-01
         11   -1    0    0    0    0  0.00000000000E+00  0.00000000000E+00  0.50000000000E+03  0.50000000000E+03  0.00000000000E+00 0. -1.
        -11   -1    0    0    0    0 -0.00000000000E+00 -0.00000000000E+00 -0.50000000000E+03  0.50000000000E+03  0.00000000000E+00 0.  1.
          5    1    1    2  501    0  0.23152442296E+03  0.34767979543E+02  0.44177543975E+03  0.50000000000E+03  0.47000000000E+01 0. -1.
         -5    1    1    2    0  501 -0.23152442296E+03 -0.34767979543E+02 -0.44177543975E+03  0.50000000000E+03  0.47000000000E+01 0.  1.
</event>
<event>
 4    1  0.4903958E-004  0.1000000E+04  0.7546771E-02  0.8684367E-01
         11   -1    0    0    0    0  0.00000000000E+00  0.00000000000E+00  0.50000000000E+03  0.50000000000E+03  0.00000000000E+00 0. -1.
        -11   -1    0    0    0    0 -0.00000000000E+00 -0.00000000000E+00 -0.50000000000E+03  0.50000000000E+03  0.00000000000E+00 0.  1.
          5    1    1    2  501    0 -0.29014070131E+03  0.33687185199E+03  0.22872174968E+03  0.50000000000E+03  0.47000000000E+01 0. -1.
         -5    1    1    2    0  501  0.29014070131E+03 -0.33687185199E+03 -0.22872174968E+03  0.50000000000E+03  0.47000000000E+01 0.  1.
</event>
<event>
 4    1  0.4903958E-004  0.1000000E+04  0.7546771E-02  0.8684367E-01
         11   -1    0    0    0    0  0.00000000000E+00  0.00000000000E+00  0.50000000000E+03  0.50000000000E+03  0.00000000000E+00 0. -1.
        -11   -1    0    0    0    0 -0.00000000000E+00 -0.00000000000E+00 -0.50000000000E+03  0.50000000000E+03  0.00000000000E+00 0.  1.
          5    1    1    2  501    0  0.35884495951E+03 -0.33255959676E+03 -0.10301611347E+03  0.50000000000E+03  0.47000000000E+01 0. -1.
         -5    1    1    2    0  501 -0.35884495951E+03  0.33255959676E+03  0.10301611347E+03  0.50000000000E+03  0.47000000000E+01 0.  1.
</event>
<event>
 4    1  0.4903958E-004  0.1000000E+04  0.7546771E-02  0.8684367E-01
         11   -1    0    0    0    0  0.00000000000E+00  0.00000000000E+00  0.50000000000E+03  0.50000000000E+03  0.00000000000E+00 0.  1.
        -11   -1    0    0    0    0 -0.00000000000E+00 -0.00000000000E+00 -0.50000000000E+03  0.50000000000E+03  0.00000000000E+00 0. -1.
          5    1    1    2  501    0 -0.42820771258E+03  0.25387078839E+02  0.25684929651E+03  0.50000000000E+03  0.47000000000E+01 0.  1.
         -5    1    1    2    0  501  0.42820771258E+03 -0.25387078839E+02 -0.25684929651E+03  0.50000000000E+03  0.47000000000E+01 0. -1.
</event>
<event>
 4    1  0.4903958E-004  0.1000000E+04  0.7546771E-02  0.8684367E-01
         11   -1    0    0    0    0  0.00000000000E+00  0.00000000000E+00  0.50000000000E+03  0.50000000000E+03  0.00000000000E+00 0. -1.
        -11   -1    0    0    0    0 -0.00000000000E+00 -0.00000000000E+00 -0.50000000000E+03  0.50000000000E+03  0.00000000000E+00 0.  1.
          5    1    1    2  501    0 -0.34540390712E+03  0.33845869962E+03  0.12696361526E+03  0.50000000000E+03  0.47000000000E+01 0. -1.
         -5    1    1    2    0  501  0.34540390712E+03 -0.33845869962E+03 -0.12696361526E+03  0.50000000000E+03  0.47000000000E+01 0.  1.
</event>
<event>
 4    1  0.4903958E-004  0.1000000E+04  0.7546771E-02  0.8684367E-01
         11   -1    0    0    0    0  0.00000000000E+00  0.00000000000E+00  0.50000000000E+03  0.50000000000E+03  0.00000000000E+00 0.  1.
        -11   -1    0    0    0    0 -0.00000000000E+00 -0.00000000000E+00 -0.50000000000E+03  0.50000000000E+03  0.00000000000E+00 0. -1.
          5    1    1    2  501    0 -0.33952805430E+02 -0.33580931693E+03  0.36885934943E+03  0.50000000000E+03  0.47000000000E+01 0.  1.
         -5    1    1    2    0  501  0.33952805430E+02  0.33580931693E+03 -0.36885934943E+03  0.50000000000E+03  0.47000000000E+01 0. -1.
</event>
<event>
 4    1  0.4903958E-004  0.1000000E+04  0.7546771E-02  0.8684367E-01
         11   -1    0    0    0    0  0.00000000000E+00  0.00000000000E+00  0.50000000000E+03  0.50000000000E+03  0.00000000000E+00 0. -1.
        -11   -1    0    0    0    0 -0.00000000000E+00 -0.00000000000E+00 -0.50000000000E+03  0.50000000000E+03  0.00000000000E+00 0.  1.
          5    1    1    2  501    0 -0.40658641382E+03  0.10699838196E+02  0.29077639443E+03  0.50000000000E+03  0.47000000000E+01 0. -1.
         -5    1    1    2    0  501  0.40658641382E+03 -0.10699838196E+02 -0.29077639443E+03  0.50000000000E+03  0.47000000000E+01 0.  1.
</event>
<event>
 4    1  0.4903958E-004  0.1000000E+04  0.7546771E-02  0.8684367E-01
         11   -1    0    0    0    0  0.00000000000E+00  0.00000000000E+00  0.50000000000E+03  0.50000000000E+03  0.00000000000E+00 0. -1.
        -11   -1    0    0    0    0 -0.00000000000E+00 -0.00000000000E+00 -0.50000000000E+03  0.50000000000E+03  0.00000000000E+00 0.  1.
          5    1    1    2  501    0 -0.36113422573E+03 -0.29553957119E+03  0.17948911629E+03  0.50000000000E+03  0.47000000000E+01 0. -1.
         -5    1    1    2    0  501  0.36113422573E+03  0.29553957119E+03 -0.17948911629E+03  0.50000000000E+03  0.47000000000E+01 0.  1.
</event>
<event>
 4    1  0.4903958E-004  0.1000000E+04  0.7546771E-02  0.8684367E-01
         11   -1    0    0    0    0  0.00000000000E+00  0.00000000000E+00  0.50000000000E+03  0.50000000000E+03  0.00000000000E+00 0. -1.
        -11   -1    0    0    0    0 -0.00000000000E+00 -0.00000000000E+00 -0.50000000000E+03  0.50000000000E+03  0.00000000000E+00 0.  1.
          5    1    1    2  501    0 -0.47454636264E+03  0.10888863565E+03  0.11369663464E+03  0.50000000000E+03  0.47000000000E+01 0. -1.
         -5    1    1    2    0  501  0.47454636264E+03 -0.10888863565E+03 -0.11369663464E+03  0.50000000000E+03  0.47000000000E+01 0.  1.
</event>
<event>
 4    1  0.4903958E-004  0.1000000E+04  0.7546771E-02  0.8684367E-01
         11   -1    0    0    0    0  0.00000000000E+00  0.00000000000E+00  0.50000000000E+03  0.50000000000E+03  0.00000000000E+00 0. -1.
        -11   -1    0    0    0    0 -0.00000000000E+00 -0.00000000000E+00 -0.50000000000E+03  0.50000000000E+03  0.00000000000E+00 0.  1.
          5    1    1    2  501    0  0.58772602484E+02  0.48970833530E+03  0.81911156342E+02  0.50000000000E+03  0.47000000000E+01 0. -1.
         -5    1    1    2    0  501 -0.58772602484E+02 -0.48970833530E+03 -0.81911156342E+02  0.50000000000E+03  0.47000000000E+01 0.  1.
</event>
<event>
 4    1  0.4903958E-004  0.1000000E+04  0.7546771E-02  0.8684367E-01
         11   -1    0    0    0    0  0.00000000000E+00  0.00000000000E+00  0.50000000000E+03  0.50000000000E+03  0.00000000000E+00 0. -1.
        -11   -1    0    0    0    0 -0.00000000000E+00 -0.00000000000E+00 -0.50000000000E+03  0.50000000000E+03  0.00000000000E+00 0.  1.
          5    1    1    2  501    0  0.42036588945E+03  0.99553114441E+02  0.25171334170E+03  0.50000000000E+03  0.47000000000E+01 0. -1.
         -5    1    1    2    0  501 -0.42036588945E+03 -0.99553114441E+02 -0.25171334170E+03  0.50000000000E+03  0.47000000000E+01 0.  1.
</event>
<event>
 4    1  0.4903958E-004  0.1000000E+04  0.7546771E-02  0.8684367E-01
         11   -1    0    0    0    0  0.00000000000E+00  0.00000000000E+00  0.50000000000E+03  0.50000000000E+03  0.00000000000E+00 0. -1.
        -11   -1    0    0    0    0 -0.00000000000E+00 -0.00000000000E+00 -0.50000000000E+03  0.50000000000E+03  0.00000000000E+00 0.  1.
          5    1    1    2  501    0 -0.51512905738E+02  0.34982641783E+03  0.35347674312E+03  0.50000000000E+03  0.47000000000E+01 0. -1.
         -5    1    1    2    0  501  0.51512905738E+02 -0.34982641783E+03 -0.35347674312E+03  0.50000000000E+03  0.47000000000E+01 0.  1.
</event>
<event>
 4    1  0.4903958E-004  0.1000000E+04  0.7546771E-02  0.8684367E-01
         11   -1    0    0    0    0  0.00000000000E+00  0.00000000000E+00  0.50000000000E+03  0.50000000000E+03  0.00000000000E+00 0. -1.
        -11   -1    0    0    0    0 -0.00000000000E+00 -0.00000000000E+00 -0.50000000000E+03  0.50000000000E+03  0.00000000000E+00 0.  1.
          5    1    1    2  501    0  0.31318402010E+02  0.27359199868E+03  0.41730622563E+03  0.50000000000E+03  0.47000000000E+01 0. -1.
         -5    1    1    2    0  501 -0.31318402010E+02 -0.27359199868E+03 -0.41730622563E+03  0.50000000000E+03  0.47000000000E+01 0.  1.
</event>
<event>
 4    1  0.4903958E-004  0.1000000E+04  0.7546771E-02  0.8684367E-01
         11   -1    0    0    0    0  0.00000000000E+00  0.00000000000E+00  0.50000000000E+03  0.50000000000E+03  0.00000000000E+00 0. -1.
        -11   -1    0    0    0    0 -0.00000000000E+00 -0.00000000000E+00 -0.50000000000E+03  0.50000000000E+03  0.00000000000E+00 0.  1.
          5    1    1    2  501    0  0.21024722226E+03  0.24933333099E+03  0.37895501790E+03  0.50000000000E+03  0.47000000000E+01 0. -1.
         -5    1    1    2    0  501 -0.21024722226E+03 -0.24933333099E+03 -0.37895501790E+03  0.50000000000E+03  0.47000000000E+01 0.  1.
</event>
<event>
 4    1  0.4903958E-004  0.1000000E+04  0.7546771E-02  0.8684367E-01
         11   -1    0    0    0    0  0.00000000000E+00  0.00000000000E+00  0.50000000000E+03  0.50000000000E+03  0.00000000000E+00 0. -1.
        -11   -1    0    0    0    0 -0.00000000000E+00 -0.00000000000E+00 -0.50000000000E+03  0.50000000000E+03  0.00000000000E+00 0.  1.
          5    1    1    2  501    0 -0.34814895332E+03 -0.31372543027E+03  0.17420267133E+03  0.50000000000E+03  0.47000000000E+01 0. -1.
         -5    1    1    2    0  501  0.34814895332E+03  0.31372543027E+03 -0.17420267133E+03  0.50000000000E+03  0.47000000000E+01 0.  1.
</event>
<event>
 4    1  0.4903958E-004  0.1000000E+04  0.7546771E-02  0.8684367E-01
         11   -1    0    0    0    0  0.00000000000E+00  0.00000000000E+00  0.50000000000E+03  0.50000000000E+03  0.00000000000E+00 0. -1.
        -11   -1    0    0    0    0 -0.00000000000E+00 -0.00000000000E+00 -0.50000000000E+03  0.50000000000E+03  0.00000000000E+00 0.  1.
          5    1    1    2  501    0  0.33464447806E+03 -0.19971406213E+03  0.31321761874E+03  0.50000000000E+03  0.47000000000E+01 0. -1.
         -5    1    1    2    0  501 -0.33464447806E+03  0.19971406213E+03 -0.31321761874E+03  0.50000000000E+03  0.47000000000E+01 0.  1.
</event>
<event>
 4    1  0.4903958E-004  0.1000000E+04  0.7546771E-02  0.8684367E-01
         11   -1    0    0    0    0  0.00000000000E+00  0.00000000000E+00  0.50000000000E+03  0.50000000000E+03  0.00000000000E+00 0. -1.
        -11   -1    0    0    0    0 -0.00000000000E+00 -0.00000000000E+00 -0.50000000000E+03  0.50000000000E+03  0.00000000000E+00 0.  1.
          5    1    1    2  501    0  0.11998639739E+03 -0.26579301034E+03  0.40612221079E+03  0.50000000000E+03  0.47000000000E+01 0. -1.
         -5    1    1    2    0  501 -0.11998639739E+03  0.26579301034E+03 -0.40612221079E+03  0.50000000000E+03  0.47000000000E+01 0.  1.
</event>
<event>
 4    1  0.4903958E-004  0.1000000E+04  0.7546771E-02  0.8684367E-01
         11   -1    0    0    0    0  0.00000000000E+00  0.00000000000E+00  0.50000000000E+03  0.50000000000E+03  0.00000000000E+00 0. -1.
        -11   -1    0    0    0    0 -0.00000000000E+00 -0.00000000000E+00 -0.50000000000E+03  0.50000000000E+03  0.00000000000E+00 0.  1.
          5    1    1    2  501    0  0.37520298706E+03  0.10393811098E+03  0.31368375410E+03  0.50000000000E+03  0.47000000000E+01 0. -1.
         -5    1    1    2    0  501 -0.37520298706E+03 -0.10393811098E+03 -0.31368375410E+03  0.50000000000E+03  0.47000000000E+01 0.  1.
</event>
<event>
 4    1  0.4903958E-004  0.1000000E+04  0.7546771E-02  0.8684367E-01
         11   -1    0    0    0    0  0.00000000000E+00  0.00000000000E+00  0.50000000000E+03  0.50000000000E+03  0.00000000000E+00 0. -1.
        -11   -1    0    0    0    0 -0.00000000000E+00 -0.00000000000E+00 -0.50000000000E+03  0.50000000000E+03  0.00000000000E+00 0.  1.
          5    1    1    2  501    0 -0.14672765686E+03 -0.37481752957E+03  0.29658173281E+03  0.50000000000E+03  0.47000000000E+01 0. -1.
         -5    1    1    2    0  501  0.14672765686E+03  0.37481752957E+03 -0.29658173281E+03  0.50000000000E+03  0.47000000000E+01 0.  1.
</event>
<event>
 4    1  0.4903958E-004  0.1000000E+04  0.7546771E-02  0.8684367E-01
         11   -1    0    0    0    0  0.00000000000E+00  0.00000000000E+00  0.50000000000E+03  0.50000000000E+03  0.00000000000E+00 0.  1.
        -11   -1    0    0    0    0 -0.00000000000E+00 -0.00000000000E+00 -0.50000000000E+03  0.50000000000E+03  0.00000000000E+00 0. -1.
          5    1    1    2  501    0 -0.82134839985E+02  0.33826914295E+03  0.35889520057E+03  0.50000000000E+03  0.47000000000E+01 0.  1.
         -5    1    1    2    0  501  0.82134839985E+02 -0.33826914295E+03 -0.35889520057E+03  0.50000000000E+03  0.47000000000E+01 0. -1.
</event>
<event>
 4    1  0.4903958E-004  0.1000000E+04  0.7546771E-02  0.8684367E-01
         11   -1    0    0    0    0  0.00000000000E+00  0.00000000000E+00  0.50000000000E+03  0.50000000000E+03  0.00000000000E+00 0. -1.
        -11   -1    0    0    0    0 -0.00000000000E+00 -0.00000000000E+00 -0.50000000000E+03  0.50000000000E+03  0.00000000000E+00 0.  1.
          5    1    1    2  501    0 -0.32524212808E+03  0.37484756734E+03  0.60702301273E+02  0.50000000000E+03  0.47000000000E+01 0. -1.
         -5    1    1    2    0  501  0.32524212808E+03 -0.37484756734E+03 -0.60702301273E+02  0.50000000000E+03  0.47000000000E+01 0.  1.
</event>
<event>
 4    1  0.4903958E-004  0.1000000E+04  0.7546771E-02  0.8684367E-01
         11   -1    0    0    0    0  0.00000000000E+00  0.00000000000E+00  0.50000000000E+03  0.50000000000E+03  0.00000000000E+00 0.  1.
        -11   -1    0    0    0    0 -0.00000000000E+00 -0.00000000000E+00 -0.50000000000E+03  0.50000000000E+03  0.00000000000E+00 0. -1.
          5    1    1    2  501    0  0.45033697485E+03 -0.16560507584E+02 -0.21656469858E+03  0.50000000000E+03  0.47000000000E+01 0. -1.
         -5    1    1    2    0  501 -0.45033697485E+03  0.16560507584E+02  0.21656469858E+03  0.50000000000E+03  0.47000000000E+01 0.  1.
</event>
<event>
 4    1  0.4903958E-004  0.1000000E+04  0.7546771E-02  0.8684367E-01
         11   -1    0    0    0    0  0.00000000000E+00  0.00000000000E+00  0.50000000000E+03  0.50000000000E+03  0.00000000000E+00 0. -1.
        -11   -1    0    0    0    0 -0.00000000000E+00 -0.00000000000E+00 -0.50000000000E+03  0.50000000000E+03  0.00000000000E+00 0.  1.
          5    1    1    2  501    0 -0.17713339373E+03 -0.30822751589E+03  0.35156431741E+03  0.50000000000E+03  0.47000000000E+01 0. -1.
         -5    1    1    2    0  501  0.17713339373E+03  0.30822751589E+03 -0.35156431741E+03  0.50000000000E+03  0.47000000000E+01 0.  1.
</event>
<event>
 4    1  0.4903958E-004  0.1000000E+04  0.7546771E-02  0.8684367E-01
         11   -1    0    0    0    0  0.00000000000E+00  0.00000000000E+00  0.50000000000E+03  0.50000000000E+03  0.00000000000E+00 0. -1.
        -11   -1    0    0    0    0 -0.00000000000E+00 -0.00000000000E+00 -0.50000000000E+03  0.50000000000E+03  0.00000000000E+00 0.  1.
          5    1    1    2  501    0  0.12227599129E+03  0.30598606252E+03  0.37603061244E+03  0.50000000000E+03  0.47000000000E+01 0. -1.
         -5    1    1    2    0  501 -0.12227599129E+03 -0.30598606252E+03 -0.37603061244E+03  0.50000000000E+03  0.47000000000E+01 0.  1.
</event>
<event>
 4    1  0.4903958E-004  0.1000000E+04  0.7546771E-02  0.8684367E-01
         11   -1    0    0    0    0  0.00000000000E+00  0.00000000000E+00  0.50000000000E+03  0.50000000000E+03  0.00000000000E+00 0. -1.
        -11   -1    0    0    0    0 -0.00000000000E+00 -0.00000000000E+00 -0.50000000000E+03  0.50000000000E+03  0.00000000000E+00 0.  1.
          5    1    1    2  501    0  0.26103916019E+03 -0.24358237933E+03 -0.35000584471E+03  0.50000000000E+03  0.47000000000E+01 0.  1.
         -5    1    1    2    0  501 -0.26103916019E+03  0.24358237933E+03  0.35000584471E+03  0.50000000000E+03  0.47000000000E+01 0. -1.
</event>
<event>
 4    1  0.4903958E-004  0.1000000E+04  0.7546771E-02  0.8684367E-01
         11   -1    0    0    0    0  0.00000000000E+00  0.00000000000E+00  0.50000000000E+03  0.50000000000E+03  0.00000000000E+00 0. -1.
        -11   -1    0    0    0    0 -0.00000000000E+00 -0.00000000000E+00 -0.50000000000E+03  0.50000000000E+03  0.00000000000E+00 0.  1.
          5    1    1    2  501    0 -0.44822131672E+03  0.14394955368E+03  0.16838671930E+03  0.50000000000E+03  0.47000000000E+01 0. -1.
         -5    1    1    2    0  501  0.44822131672E+03 -0.14394955368E+03 -0.16838671930E+03  0.50000000000E+03  0.47000000000E+01 0.  1.
</event>
<event>
 4    1  0.4903958E-004  0.1000000E+04  0.7546771E-02  0.8684367E-01
         11   -1    0    0    0    0  0.00000000000E+00  0.00000000000E+00  0.50000000000E+03  0.50000000000E+03  0.00000000000E+00 0. -1.
        -11   -1    0    0    0    0 -0.00000000000E+00 -0.00000000000E+00 -0.50000000000E+03  0.50000000000E+03  0.00000000000E+00 0.  1.
          5    1    1    2  501    0 -0.32357313490E+03  0.35343344466E+03 -0.14269946239E+03  0.50000000000E+03  0.47000000000E+01 0. -1.
         -5    1    1    2    0  501  0.32357313490E+03 -0.35343344466E+03  0.14269946239E+03  0.50000000000E+03  0.47000000000E+01 0.  1.
</event>
<event>
 4    1  0.4903958E-004  0.1000000E+04  0.7546771E-02  0.8684367E-01
         11   -1    0    0    0    0  0.00000000000E+00  0.00000000000E+00  0.50000000000E+03  0.50000000000E+03  0.00000000000E+00 0. -1.
        -11   -1    0    0    0    0 -0.00000000000E+00 -0.00000000000E+00 -0.50000000000E+03  0.50000000000E+03  0.00000000000E+00 0.  1.
          5    1    1    2  501    0 -0.26942046959E+03  0.15859310126E+02  0.42087884581E+03  0.50000000000E+03  0.47000000000E+01 0. -1.
         -5    1    1    2    0  501  0.26942046959E+03 -0.15859310126E+02 -0.42087884581E+03  0.50000000000E+03  0.47000000000E+01 0.  1.
</event>
<event>
 4    1  0.4903958E-004  0.1000000E+04  0.7546771E-02  0.8684367E-01
         11   -1    0    0    0    0  0.00000000000E+00  0.00000000000E+00  0.50000000000E+03  0.50000000000E+03  0.00000000000E+00 0.  1.
        -11   -1    0    0    0    0 -0.00000000000E+00 -0.00000000000E+00 -0.50000000000E+03  0.50000000000E+03  0.00000000000E+00 0. -1.
          5    1    1    2  501    0  0.13760033050E+03  0.42756953953E+02  0.47876497568E+03  0.50000000000E+03  0.47000000000E+01 0.  1.
         -5    1    1    2    0  501 -0.13760033050E+03 -0.42756953953E+02 -0.47876497568E+03  0.50000000000E+03  0.47000000000E+01 0. -1.
</event>
<event>
 4    1  0.4903958E-004  0.1000000E+04  0.7546771E-02  0.8684367E-01
         11   -1    0    0    0    0  0.00000000000E+00  0.00000000000E+00  0.50000000000E+03  0.50000000000E+03  0.00000000000E+00 0.  1.
        -11   -1    0    0    0    0 -0.00000000000E+00 -0.00000000000E+00 -0.50000000000E+03  0.50000000000E+03  0.00000000000E+00 0. -1.
          5    1    1    2  501    0 -0.41339897335E+03 -0.15186655750E+03  0.23667646174E+03  0.50000000000E+03  0.47000000000E+01 0.  1.
         -5    1    1    2    0  501  0.41339897335E+03  0.15186655750E+03 -0.23667646174E+03  0.50000000000E+03  0.47000000000E+01 0. -1.
</event>
<event>
 4    1  0.4903958E-004  0.1000000E+04  0.7546771E-02  0.8684367E-01
         11   -1    0    0    0    0  0.00000000000E+00  0.00000000000E+00  0.50000000000E+03  0.50000000000E+03  0.00000000000E+00 0. -1.
        -11   -1    0    0    0    0 -0.00000000000E+00 -0.00000000000E+00 -0.50000000000E+03  0.50000000000E+03  0.00000000000E+00 0.  1.
          5    1    1    2  501    0  0.18023840738E+03 -0.46189604236E+03 -0.64374471294E+02  0.50000000000E+03  0.47000000000E+01 0. -1.
         -5    1    1    2    0  501 -0.18023840738E+03  0.46189604236E+03  0.64374471294E+02  0.50000000000E+03  0.47000000000E+01 0.  1.
</event>
<event>
 4    1  0.4903958E-004  0.1000000E+04  0.7546771E-02  0.8684367E-01
         11   -1    0    0    0    0  0.00000000000E+00  0.00000000000E+00  0.50000000000E+03  0.50000000000E+03  0.00000000000E+00 0. -1.
        -11   -1    0    0    0    0 -0.00000000000E+00 -0.00000000000E+00 -0.50000000000E+03  0.50000000000E+03  0.00000000000E+00 0.  1.
          5    1    1    2  501    0 -0.43995000431E+03 -0.15667298220E+03 -0.17853705598E+03  0.50000000000E+03  0.47000000000E+01 0.  1.
         -5    1    1    2    0  501  0.43995000431E+03  0.15667298220E+03  0.17853705598E+03  0.50000000000E+03  0.47000000000E+01 0. -1.
</event>
<event>
 4    1  0.4903958E-004  0.1000000E+04  0.7546771E-02  0.8684367E-01
         11   -1    0    0    0    0  0.00000000000E+00  0.00000000000E+00  0.50000000000E+03  0.50000000000E+03  0.00000000000E+00 0. -1.
        -11   -1    0    0    0    0 -0.00000000000E+00 -0.00000000000E+00 -0.50000000000E+03  0.50000000000E+03  0.00000000000E+00 0.  1.
          5    1    1    2  501    0 -0.58100358566E+01 -0.24012034492E+03  0.43850470173E+03  0.50000000000E+03  0.47000000000E+01 0. -1.
         -5    1    1    2    0  501  0.58100358566E+01  0.24012034492E+03 -0.43850470173E+03  0.50000000000E+03  0.47000000000E+01 0.  1.
</event>
<event>
 4    1  0.4903958E-004  0.1000000E+04  0.7546771E-02  0.8684367E-01
         11   -1    0    0    0    0  0.00000000000E+00  0.00000000000E+00  0.50000000000E+03  0.50000000000E+03  0.00000000000E+00 0. -1.
        -11   -1    0    0    0    0 -0.00000000000E+00 -0.00000000000E+00 -0.50000000000E+03  0.50000000000E+03  0.00000000000E+00 0.  1.
          5    1    1    2  501    0  0.91381245948E+02  0.10412237897E+03  0.48040181940E+03  0.50000000000E+03  0.47000000000E+01 0. -1.
         -5    1    1    2    0  501 -0.91381245948E+02 -0.10412237897E+03 -0.48040181940E+03  0.50000000000E+03  0.47000000000E+01 0.  1.
</event>
<event>
 4    1  0.4903958E-004  0.1000000E+04  0.7546771E-02  0.8684367E-01
         11   -1    0    0    0    0  0.00000000000E+00  0.00000000000E+00  0.50000000000E+03  0.50000000000E+03  0.00000000000E+00 0. -1.
        -11   -1    0    0    0    0 -0.00000000000E+00 -0.00000000000E+00 -0.50000000000E+03  0.50000000000E+03  0.00000000000E+00 0.  1.
          5    1    1    2  501    0 -0.23271414746E+03 -0.68474944389E+02  0.43718785157E+03  0.50000000000E+03  0.47000000000E+01 0. -1.
         -5    1    1    2    0  501  0.23271414746E+03  0.68474944389E+02 -0.43718785157E+03  0.50000000000E+03  0.47000000000E+01 0.  1.
</event>
<event>
 4    1  0.4903958E-004  0.1000000E+04  0.7546771E-02  0.8684367E-01
         11   -1    0    0    0    0  0.00000000000E+00  0.00000000000E+00  0.50000000000E+03  0.50000000000E+03  0.00000000000E+00 0. -1.
        -11   -1    0    0    0    0 -0.00000000000E+00 -0.00000000000E+00 -0.50000000000E+03  0.50000000000E+03  0.00000000000E+00 0.  1.
          5    1    1    2  501    0 -0.25588704638E+03  0.36977061033E+03  0.21856217704E+03  0.50000000000E+03  0.47000000000E+01 0. -1.
         -5    1    1    2    0  501  0.25588704638E+03 -0.36977061033E+03 -0.21856217704E+03  0.50000000000E+03  0.47000000000E+01 0.  1.
</event>
<event>
 4    1  0.4903958E-004  0.1000000E+04  0.7546771E-02  0.8684367E-01
         11   -1    0    0    0    0  0.00000000000E+00  0.00000000000E+00  0.50000000000E+03  0.50000000000E+03  0.00000000000E+00 0. -1.
        -11   -1    0    0    0    0 -0.00000000000E+00 -0.00000000000E+00 -0.50000000000E+03  0.50000000000E+03  0.00000000000E+00 0.  1.
          5    1    1    2  501    0 -0.65383331053E+02  0.32638291570E+03  0.37306450160E+03  0.50000000000E+03  0.47000000000E+01 0. -1.
         -5    1    1    2    0  501  0.65383331053E+02 -0.32638291570E+03 -0.37306450160E+03  0.50000000000E+03  0.47000000000E+01 0.  1.
</event>
<event>
 4    1  0.4903958E-004  0.1000000E+04  0.7546771E-02  0.8684367E-01
         11   -1    0    0    0    0  0.00000000000E+00  0.00000000000E+00  0.50000000000E+03  0.50000000000E+03  0.00000000000E+00 0. -1.
        -11   -1    0    0    0    0 -0.00000000000E+00 -0.00000000000E+00 -0.50000000000E+03  0.50000000000E+03  0.00000000000E+00 0.  1.
          5    1    1    2  501    0  0.18046293454E+03 -0.17404765658E+03  0.43257190442E+03  0.50000000000E+03  0.47000000000E+01 0. -1.
         -5    1    1    2    0  501 -0.18046293454E+03  0.17404765658E+03 -0.43257190442E+03  0.50000000000E+03  0.47000000000E+01 0.  1.
</event>
<event>
 4    1  0.4903958E-004  0.1000000E+04  0.7546771E-02  0.8684367E-01
         11   -1    0    0    0    0  0.00000000000E+00  0.00000000000E+00  0.50000000000E+03  0.50000000000E+03  0.00000000000E+00 0. -1.
        -11   -1    0    0    0    0 -0.00000000000E+00 -0.00000000000E+00 -0.50000000000E+03  0.50000000000E+03  0.00000000000E+00 0.  1.
          5    1    1    2  501    0 -0.40572193795E+03 -0.63884668357E+02  0.28510764320E+03  0.50000000000E+03  0.47000000000E+01 0. -1.
         -5    1    1    2    0  501  0.40572193795E+03  0.63884668357E+02 -0.28510764320E+03  0.50000000000E+03  0.47000000000E+01 0.  1.
</event>
<event>
 4    1  0.4903958E-004  0.1000000E+04  0.7546771E-02  0.8684367E-01
         11   -1    0    0    0    0  0.00000000000E+00  0.00000000000E+00  0.50000000000E+03  0.50000000000E+03  0.00000000000E+00 0. -1.
        -11   -1    0    0    0    0 -0.00000000000E+00 -0.00000000000E+00 -0.50000000000E+03  0.50000000000E+03  0.00000000000E+00 0.  1.
          5    1    1    2  501    0  0.21450676926E+03  0.17464526139E+03  0.41648984215E+03  0.50000000000E+03  0.47000000000E+01 0. -1.
         -5    1    1    2    0  501 -0.21450676926E+03 -0.17464526139E+03 -0.41648984215E+03  0.50000000000E+03  0.47000000000E+01 0.  1.
</event>
<event>
 4    1  0.4903958E-004  0.1000000E+04  0.7546771E-02  0.8684367E-01
         11   -1    0    0    0    0  0.00000000000E+00  0.00000000000E+00  0.50000000000E+03  0.50000000000E+03  0.00000000000E+00 0.  1.
        -11   -1    0    0    0    0 -0.00000000000E+00 -0.00000000000E+00 -0.50000000000E+03  0.50000000000E+03  0.00000000000E+00 0. -1.
          5    1    1    2  501    0  0.99336816434E+02  0.90815891061E+02  0.48152111151E+03  0.50000000000E+03  0.47000000000E+01 0.  1.
         -5    1    1    2    0  501 -0.99336816434E+02 -0.90815891061E+02 -0.48152111151E+03  0.50000000000E+03  0.47000000000E+01 0. -1.
</event>
<event>
 4    1  0.4903958E-004  0.1000000E+04  0.7546771E-02  0.8684367E-01
         11   -1    0    0    0    0  0.00000000000E+00  0.00000000000E+00  0.50000000000E+03  0.50000000000E+03  0.00000000000E+00 0. -1.
        -11   -1    0    0    0    0 -0.00000000000E+00 -0.00000000000E+00 -0.50000000000E+03  0.50000000000E+03  0.00000000000E+00 0.  1.
          5    1    1    2  501    0 -0.88990635357E+02 -0.97899149728E+02  0.48215592219E+03  0.50000000000E+03  0.47000000000E+01 0. -1.
         -5    1    1    2    0  501  0.88990635357E+02  0.97899149728E+02 -0.48215592219E+03  0.50000000000E+03  0.47000000000E+01 0.  1.
</event>
<event>
 4    1  0.4903958E-004  0.1000000E+04  0.7546771E-02  0.8684367E-01
         11   -1    0    0    0    0  0.00000000000E+00  0.00000000000E+00  0.50000000000E+03  0.50000000000E+03  0.00000000000E+00 0.  1.
        -11   -1    0    0    0    0 -0.00000000000E+00 -0.00000000000E+00 -0.50000000000E+03  0.50000000000E+03  0.00000000000E+00 0. -1.
          5    1    1    2  501    0 -0.35203129755E+03 -0.30748048690E+03  0.17750387522E+03  0.50000000000E+03  0.47000000000E+01 0. -1.
         -5    1    1    2    0  501  0.35203129755E+03  0.30748048690E+03 -0.17750387522E+03  0.50000000000E+03  0.47000000000E+01 0.  1.
</event>
<event>
 4    1  0.4903958E-004  0.1000000E+04  0.7546771E-02  0.8684367E-01
         11   -1    0    0    0    0  0.00000000000E+00  0.00000000000E+00  0.50000000000E+03  0.50000000000E+03  0.00000000000E+00 0. -1.
        -11   -1    0    0    0    0 -0.00000000000E+00 -0.00000000000E+00 -0.50000000000E+03  0.50000000000E+03  0.00000000000E+00 0.  1.
          5    1    1    2  501    0 -0.27588411852E+03  0.20016590777E+03  0.36578610213E+03  0.50000000000E+03  0.47000000000E+01 0. -1.
         -5    1    1    2    0  501  0.27588411852E+03 -0.20016590777E+03 -0.36578610213E+03  0.50000000000E+03  0.47000000000E+01 0.  1.
</event>
<event>
 4    1  0.4903958E-004  0.1000000E+04  0.7546771E-02  0.8684367E-01
         11   -1    0    0    0    0  0.00000000000E+00  0.00000000000E+00  0.50000000000E+03  0.50000000000E+03  0.00000000000E+00 0. -1.
        -11   -1    0    0    0    0 -0.00000000000E+00 -0.00000000000E+00 -0.50000000000E+03  0.50000000000E+03  0.00000000000E+00 0.  1.
          5    1    1    2  501    0 -0.42800944429E+03  0.97464817671E+02 -0.23934584792E+03  0.50000000000E+03  0.47000000000E+01 0. -1.
         -5    1    1    2    0  501  0.42800944429E+03 -0.97464817671E+02  0.23934584792E+03  0.50000000000E+03  0.47000000000E+01 0.  1.
</event>
<event>
 4    1  0.4903958E-004  0.1000000E+04  0.7546771E-02  0.8684367E-01
         11   -1    0    0    0    0  0.00000000000E+00  0.00000000000E+00  0.50000000000E+03  0.50000000000E+03  0.00000000000E+00 0.  1.
        -11   -1    0    0    0    0 -0.00000000000E+00 -0.00000000000E+00 -0.50000000000E+03  0.50000000000E+03  0.00000000000E+00 0. -1.
          5    1    1    2  501    0  0.31134431417E+03  0.13065884544E+03  0.36874231401E+03  0.50000000000E+03  0.47000000000E+01 0.  1.
         -5    1    1    2    0  501 -0.31134431417E+03 -0.13065884544E+03 -0.36874231401E+03  0.50000000000E+03  0.47000000000E+01 0. -1.
</event>
<event>
 4    1  0.4903958E-004  0.1000000E+04  0.7546771E-02  0.8684367E-01
         11   -1    0    0    0    0  0.00000000000E+00  0.00000000000E+00  0.50000000000E+03  0.50000000000E+03  0.00000000000E+00 0. -1.
        -11   -1    0    0    0    0 -0.00000000000E+00 -0.00000000000E+00 -0.50000000000E+03  0.50000000000E+03  0.00000000000E+00 0.  1.
          5    1    1    2  501    0 -0.17711736680E+03  0.39559011310E+03  0.24923043713E+03  0.50000000000E+03  0.47000000000E+01 0. -1.
         -5    1    1    2    0  501  0.17711736680E+03 -0.39559011310E+03 -0.24923043713E+03  0.50000000000E+03  0.47000000000E+01 0.  1.
</event>
<event>
 4    1  0.4903958E-004  0.1000000E+04  0.7546771E-02  0.8684367E-01
         11   -1    0    0    0    0  0.00000000000E+00  0.00000000000E+00  0.50000000000E+03  0.50000000000E+03  0.00000000000E+00 0. -1.
        -11   -1    0    0    0    0 -0.00000000000E+00 -0.00000000000E+00 -0.50000000000E+03  0.50000000000E+03  0.00000000000E+00 0.  1.
          5    1    1    2  501    0 -0.27357555649E+02 -0.19154688456E+03  0.46101980995E+03  0.50000000000E+03  0.47000000000E+01 0. -1.
         -5    1    1    2    0  501  0.27357555649E+02  0.19154688456E+03 -0.46101980995E+03  0.50000000000E+03  0.47000000000E+01 0.  1.
</event>
<event>
 4    1  0.4903958E-004  0.1000000E+04  0.7546771E-02  0.8684367E-01
         11   -1    0    0    0    0  0.00000000000E+00  0.00000000000E+00  0.50000000000E+03  0.50000000000E+03  0.00000000000E+00 0. -1.
        -11   -1    0    0    0    0 -0.00000000000E+00 -0.00000000000E+00 -0.50000000000E+03  0.50000000000E+03  0.00000000000E+00 0.  1.
          5    1    1    2  501    0  0.14011763199E+03 -0.25042657632E+03  0.40942824655E+03  0.50000000000E+03  0.47000000000E+01 0. -1.
         -5    1    1    2    0  501 -0.14011763199E+03  0.25042657632E+03 -0.40942824655E+03  0.50000000000E+03  0.47000000000E+01 0.  1.
</event>
<event>
 4    1  0.4903958E-004  0.1000000E+04  0.7546771E-02  0.8684367E-01
         11   -1    0    0    0    0  0.00000000000E+00  0.00000000000E+00  0.50000000000E+03  0.50000000000E+03  0.00000000000E+00 0. -1.
        -11   -1    0    0    0    0 -0.00000000000E+00 -0.00000000000E+00 -0.50000000000E+03  0.50000000000E+03  0.00000000000E+00 0.  1.
          5    1    1    2  501    0 -0.20904331892E+03  0.43993047154E+03  0.11287152443E+03  0.50000000000E+03  0.47000000000E+01 0. -1.
         -5    1    1    2    0  501  0.20904331892E+03 -0.43993047154E+03 -0.11287152443E+03  0.50000000000E+03  0.47000000000E+01 0.  1.
</event>
<event>
 4    1  0.4903958E-004  0.1000000E+04  0.7546771E-02  0.8684367E-01
         11   -1    0    0    0    0  0.00000000000E+00  0.00000000000E+00  0.50000000000E+03  0.50000000000E+03  0.00000000000E+00 0. -1.
        -11   -1    0    0    0    0 -0.00000000000E+00 -0.00000000000E+00 -0.50000000000E+03  0.50000000000E+03  0.00000000000E+00 0.  1.
          5    1    1    2  501    0  0.22634546578E+03 -0.42019673938E+02  0.44382427505E+03  0.50000000000E+03  0.47000000000E+01 0. -1.
         -5    1    1    2    0  501 -0.22634546578E+03  0.42019673938E+02 -0.44382427505E+03  0.50000000000E+03  0.47000000000E+01 0.  1.
</event>
<event>
 4    1  0.4903958E-004  0.1000000E+04  0.7546771E-02  0.8684367E-01
         11   -1    0    0    0    0  0.00000000000E+00  0.00000000000E+00  0.50000000000E+03  0.50000000000E+03  0.00000000000E+00 0. -1.
        -11   -1    0    0    0    0 -0.00000000000E+00 -0.00000000000E+00 -0.50000000000E+03  0.50000000000E+03  0.00000000000E+00 0.  1.
          5    1    1    2  501    0 -0.46106910770E+03  0.10536804980E+03  0.16214426293E+03  0.50000000000E+03  0.47000000000E+01 0. -1.
         -5    1    1    2    0  501  0.46106910770E+03 -0.10536804980E+03 -0.16214426293E+03  0.50000000000E+03  0.47000000000E+01 0.  1.
</event>
<event>
 4    1  0.4903958E-004  0.1000000E+04  0.7546771E-02  0.8684367E-01
         11   -1    0    0    0    0  0.00000000000E+00  0.00000000000E+00  0.50000000000E+03  0.50000000000E+03  0.00000000000E+00 0. -1.
        -11   -1    0    0    0    0 -0.00000000000E+00 -0.00000000000E+00 -0.50000000000E+03  0.50000000000E+03  0.00000000000E+00 0.  1.
          5    1    1    2  501    0 -0.12259828829E+03  0.35098780096E+03  0.33429797080E+03  0.50000000000E+03  0.47000000000E+01 0. -1.
         -5    1    1    2    0  501  0.12259828829E+03 -0.35098780096E+03 -0.33429797080E+03  0.50000000000E+03  0.47000000000E+01 0.  1.
</event>
<event>
 4    1  0.4903958E-004  0.1000000E+04  0.7546771E-02  0.8684367E-01
         11   -1    0    0    0    0  0.00000000000E+00  0.00000000000E+00  0.50000000000E+03  0.50000000000E+03  0.00000000000E+00 0. -1.
        -11   -1    0    0    0    0 -0.00000000000E+00 -0.00000000000E+00 -0.50000000000E+03  0.50000000000E+03  0.00000000000E+00 0.  1.
          5    1    1    2  501    0  0.25385471040E+03 -0.35709376737E+03  0.24087286546E+03  0.50000000000E+03  0.47000000000E+01 0. -1.
         -5    1    1    2    0  501 -0.25385471040E+03  0.35709376737E+03 -0.24087286546E+03  0.50000000000E+03  0.47000000000E+01 0.  1.
</event>
<event>
 4    1  0.4903958E-004  0.1000000E+04  0.7546771E-02  0.8684367E-01
         11   -1    0    0    0    0  0.00000000000E+00  0.00000000000E+00  0.50000000000E+03  0.50000000000E+03  0.00000000000E+00 0. -1.
        -11   -1    0    0    0    0 -0.00000000000E+00 -0.00000000000E+00 -0.50000000000E+03  0.50000000000E+03  0.00000000000E+00 0.  1.
          5    1    1    2  501    0 -0.68878058137E+02 -0.10006021004E+03  0.48499657470E+03  0.50000000000E+03  0.47000000000E+01 0. -1.
         -5    1    1    2    0  501  0.68878058137E+02  0.10006021004E+03 -0.48499657470E+03  0.50000000000E+03  0.47000000000E+01 0.  1.
</event>
<event>
 4    1  0.4903958E-004  0.1000000E+04  0.7546771E-02  0.8684367E-01
         11   -1    0    0    0    0  0.00000000000E+00  0.00000000000E+00  0.50000000000E+03  0.50000000000E+03  0.00000000000E+00 0. -1.
        -11   -1    0    0    0    0 -0.00000000000E+00 -0.00000000000E+00 -0.50000000000E+03  0.50000000000E+03  0.00000000000E+00 0.  1.
          5    1    1    2  501    0  0.24046112462E+03  0.43461084702E+03  0.57181895727E+02  0.50000000000E+03  0.47000000000E+01 0. -1.
         -5    1    1    2    0  501 -0.24046112462E+03 -0.43461084702E+03 -0.57181895727E+02  0.50000000000E+03  0.47000000000E+01 0.  1.
</event>
<event>
 4    1  0.4903958E-004  0.1000000E+04  0.7546771E-02  0.8684367E-01
         11   -1    0    0    0    0  0.00000000000E+00  0.00000000000E+00  0.50000000000E+03  0.50000000000E+03  0.00000000000E+00 0. -1.
        -11   -1    0    0    0    0 -0.00000000000E+00 -0.00000000000E+00 -0.50000000000E+03  0.50000000000E+03  0.00000000000E+00 0.  1.
          5    1    1    2  501    0 -0.37386909131E+03 -0.27601317006E+03  0.18443574088E+03  0.50000000000E+03  0.47000000000E+01 0. -1.
         -5    1    1    2    0  501  0.37386909131E+03  0.27601317006E+03 -0.18443574088E+03  0.50000000000E+03  0.47000000000E+01 0.  1.
</event>
<event>
 4    1  0.4903958E-004  0.1000000E+04  0.7546771E-02  0.8684367E-01
         11   -1    0    0    0    0  0.00000000000E+00  0.00000000000E+00  0.50000000000E+03  0.50000000000E+03  0.00000000000E+00 0.  1.
        -11   -1    0    0    0    0 -0.00000000000E+00 -0.00000000000E+00 -0.50000000000E+03  0.50000000000E+03  0.00000000000E+00 0. -1.
          5    1    1    2  501    0  0.75335916983E+02 -0.19587499852E+03  0.45380105175E+03  0.50000000000E+03  0.47000000000E+01 0.  1.
         -5    1    1    2    0  501 -0.75335916983E+02  0.19587499852E+03 -0.45380105175E+03  0.50000000000E+03  0.47000000000E+01 0. -1.
</event>
<event>
 4    1  0.4903958E-004  0.1000000E+04  0.7546771E-02  0.8684367E-01
         11   -1    0    0    0    0  0.00000000000E+00  0.00000000000E+00  0.50000000000E+03  0.50000000000E+03  0.00000000000E+00 0. -1.
        -11   -1    0    0    0    0 -0.00000000000E+00 -0.00000000000E+00 -0.50000000000E+03  0.50000000000E+03  0.00000000000E+00 0.  1.
          5    1    1    2  501    0  0.48809811212E+03 -0.30546074094E+02 -0.10394748817E+03  0.50000000000E+03  0.47000000000E+01 0. -1.
         -5    1    1    2    0  501 -0.48809811212E+03  0.30546074094E+02  0.10394748817E+03  0.50000000000E+03  0.47000000000E+01 0.  1.
</event>
<event>
 4    1  0.4903958E-004  0.1000000E+04  0.7546771E-02  0.8684367E-01
         11   -1    0    0    0    0  0.00000000000E+00  0.00000000000E+00  0.50000000000E+03  0.50000000000E+03  0.00000000000E+00 0. -1.
        -11   -1    0    0    0    0 -0.00000000000E+00 -0.00000000000E+00 -0.50000000000E+03  0.50000000000E+03  0.00000000000E+00 0.  1.
          5    1    1    2  501    0  0.58570353268E+02 -0.21113657914E+03  0.44940935534E+03  0.50000000000E+03  0.47000000000E+01 0. -1.
         -5    1    1    2    0  501 -0.58570353268E+02  0.21113657914E+03 -0.44940935534E+03  0.50000000000E+03  0.47000000000E+01 0.  1.
</event>
<event>
 4    1  0.4903958E-004  0.1000000E+04  0.7546771E-02  0.8684367E-01
         11   -1    0    0    0    0  0.00000000000E+00  0.00000000000E+00  0.50000000000E+03  0.50000000000E+03  0.00000000000E+00 0. -1.
        -11   -1    0    0    0    0 -0.00000000000E+00 -0.00000000000E+00 -0.50000000000E+03  0.50000000000E+03  0.00000000000E+00 0.  1.
          5    1    1    2  501    0  0.48020457904E+03  0.59843223018E+02  0.12569908881E+03  0.50000000000E+03  0.47000000000E+01 0. -1.
         -5    1    1    2    0  501 -0.48020457904E+03 -0.59843223018E+02 -0.12569908881E+03  0.50000000000E+03  0.47000000000E+01 0.  1.
</event>
<event>
 4    1  0.4903958E-004  0.1000000E+04  0.7546771E-02  0.8684367E-01
         11   -1    0    0    0    0  0.00000000000E+00  0.00000000000E+00  0.50000000000E+03  0.50000000000E+03  0.00000000000E+00 0.  1.
        -11   -1    0    0    0    0 -0.00000000000E+00 -0.00000000000E+00 -0.50000000000E+03  0.50000000000E+03  0.00000000000E+00 0. -1.
          5    1    1    2  501    0  0.20355866370E+02  0.43496208513E+03  0.24570619285E+03  0.50000000000E+03  0.47000000000E+01 0.  1.
         -5    1    1    2    0  501 -0.20355866370E+02 -0.43496208513E+03 -0.24570619285E+03  0.50000000000E+03  0.47000000000E+01 0. -1.
</event>
<event>
 4    1  0.4903958E-004  0.1000000E+04  0.7546771E-02  0.8684367E-01
         11   -1    0    0    0    0  0.00000000000E+00  0.00000000000E+00  0.50000000000E+03  0.50000000000E+03  0.00000000000E+00 0. -1.
        -11   -1    0    0    0    0 -0.00000000000E+00 -0.00000000000E+00 -0.50000000000E+03  0.50000000000E+03  0.00000000000E+00 0.  1.
          5    1    1    2  501    0  0.35818978976E+03 -0.19266959918E+03 -0.29078584914E+03  0.50000000000E+03  0.47000000000E+01 0. -1.
         -5    1    1    2    0  501 -0.35818978976E+03  0.19266959918E+03  0.29078584914E+03  0.50000000000E+03  0.47000000000E+01 0.  1.
</event>
<event>
 4    1  0.4903958E-004  0.1000000E+04  0.7546771E-02  0.8684367E-01
         11   -1    0    0    0    0  0.00000000000E+00  0.00000000000E+00  0.50000000000E+03  0.50000000000E+03  0.00000000000E+00 0. -1.
        -11   -1    0    0    0    0 -0.00000000000E+00 -0.00000000000E+00 -0.50000000000E+03  0.50000000000E+03  0.00000000000E+00 0.  1.
          5    1    1    2  501    0  0.40119690317E+03 -0.20179628088E+03  0.21976627564E+03  0.50000000000E+03  0.47000000000E+01 0. -1.
         -5    1    1    2    0  501 -0.40119690317E+03  0.20179628088E+03 -0.21976627564E+03  0.50000000000E+03  0.47000000000E+01 0.  1.
</event>
<event>
 4    1  0.4903958E-004  0.1000000E+04  0.7546771E-02  0.8684367E-01
         11   -1    0    0    0    0  0.00000000000E+00  0.00000000000E+00  0.50000000000E+03  0.50000000000E+03  0.00000000000E+00 0.  1.
        -11   -1    0    0    0    0 -0.00000000000E+00 -0.00000000000E+00 -0.50000000000E+03  0.50000000000E+03  0.00000000000E+00 0. -1.
          5    1    1    2  501    0  0.31293545189E+03  0.38952254390E+03  0.17930441824E+02  0.50000000000E+03  0.47000000000E+01 0.  1.
         -5    1    1    2    0  501 -0.31293545189E+03 -0.38952254390E+03 -0.17930441824E+02  0.50000000000E+03  0.47000000000E+01 0. -1.
</event>
<event>
 4    1  0.4903958E-004  0.1000000E+04  0.7546771E-02  0.8684367E-01
         11   -1    0    0    0    0  0.00000000000E+00  0.00000000000E+00  0.50000000000E+03  0.50000000000E+03  0.00000000000E+00 0. -1.
        -11   -1    0    0    0    0 -0.00000000000E+00 -0.00000000000E+00 -0.50000000000E+03  0.50000000000E+03  0.00000000000E+00 0.  1.
          5    1    1    2  501    0  0.13911776030E+02  0.49975305572E+03  0.55906876577E+01  0.50000000000E+03  0.47000000000E+01 0. -1.
         -5    1    1    2    0  501 -0.13911776030E+02 -0.49975305572E+03 -0.55906876577E+01  0.50000000000E+03  0.47000000000E+01 0.  1.
</event>
<event>
 4    1  0.4903958E-004  0.1000000E+04  0.7546771E-02  0.8684367E-01
         11   -1    0    0    0    0  0.00000000000E+00  0.00000000000E+00  0.50000000000E+03  0.50000000000E+03  0.00000000000E+00 0. -1.
        -11   -1    0    0    0    0 -0.00000000000E+00 -0.00000000000E+00 -0.50000000000E+03  0.50000000000E+03  0.00000000000E+00 0.  1.
          5    1    1    2  501    0  0.20342477575E+03 -0.35077141317E+03  0.29249903643E+03  0.50000000000E+03  0.47000000000E+01 0. -1.
         -5    1    1    2    0  501 -0.20342477575E+03  0.35077141317E+03 -0.29249903643E+03  0.50000000000E+03  0.47000000000E+01 0.  1.
</event>
<event>
 4    1  0.4903958E-004  0.1000000E+04  0.7546771E-02  0.8684367E-01
         11   -1    0    0    0    0  0.00000000000E+00  0.00000000000E+00  0.50000000000E+03  0.50000000000E+03  0.00000000000E+00 0. -1.
        -11   -1    0    0    0    0 -0.00000000000E+00 -0.00000000000E+00 -0.50000000000E+03  0.50000000000E+03  0.00000000000E+00 0.  1.
          5    1    1    2  501    0 -0.26391029581E+03  0.37822073541E+03  0.19307599819E+03  0.50000000000E+03  0.47000000000E+01 0. -1.
         -5    1    1    2    0  501  0.26391029581E+03 -0.37822073541E+03 -0.19307599819E+03  0.50000000000E+03  0.47000000000E+01 0.  1.
</event>
